MODEL 2
REMARK VINA RESULT:    -7.153      0.999      2.785
REMARK INTER + INTRA:         -11.786
REMARK INTER:                 -10.676
REMARK INTRA:                  -1.110
REMARK UNBOUND:                -1.289
REMARK  Name = BEM
REMARK  12 active torsions:
REMARK  status: ('A' for Active; 'I' for Inactive)
REMARK    1  A    between atoms: C_1  and  O_20
REMARK    2  A    between atoms: C_2  and  O_3
REMARK    3  A    between atoms: C_4  and  O_5
REMARK    4  A    between atoms: C_6  and  O_7
REMARK    5  A    between atoms: C_8  and  C_10
REMARK    6  A    between atoms: C_10  and  O_11
REMARK    7  A    between atoms: C_13  and  O_14
REMARK    8  A    between atoms: C_15  and  O_16
REMARK    9  A    between atoms: C_17  and  O_18
REMARK   10  A    between atoms: C_19  and  O_20
REMARK   11  A    between atoms: C_21  and  C_23
REMARK   12  A    between atoms: C_23  and  O_25
REMARK                            x       y       z     vdW  Elec       q    Type
REMARK                         _______ _______ _______ _____ _____    ______ ____
ROOT
ATOM      1  O   UNL     1     -34.654  12.634 -17.001  0.00  0.00    -0.340 OA
ENDROOT
BRANCH   1   2
ATOM      2  C   UNL     1     -35.091  12.771 -15.655  0.00  0.00    +0.283 C 
ATOM      3  C   UNL     1     -34.967  14.236 -15.176  0.00  0.00    +0.201 C 
ATOM      4  C   UNL     1     -33.487  14.643 -15.084  0.00  0.00    +0.179 C 
ATOM      5  C   UNL     1     -32.701  13.610 -14.261  0.00  0.00    +0.185 C 
ATOM      6  C   UNL     1     -32.969  12.197 -14.819  0.00  0.00    +0.260 C 
ATOM      7  O   UNL     1     -34.357  11.899 -14.810  0.00  0.00    -0.332 OA
BRANCH   3   8
ATOM      8  O   UNL     1     -35.575  14.380 -13.917  0.00  0.00    -0.384 OA
ATOM      9  H   UNL     1     -36.224  15.127 -13.995  0.00  0.00    +0.210 HD
ENDBRANCH   3   8
BRANCH   4  10
ATOM     10  O   UNL     1     -33.367  15.909 -14.489  0.00  0.00    -0.386 OA
ATOM     11  H   UNL     1     -34.264  16.143 -14.131  0.00  0.00    +0.210 HD
ENDBRANCH   4  10
BRANCH   5  12
ATOM     12  O   UNL     1     -31.326  13.890 -14.334  0.00  0.00    -0.386 OA
ATOM     13  H   UNL     1     -30.894  13.106 -14.764  0.00  0.00    +0.210 HD
ENDBRANCH   5  12
BRANCH   6  14
ATOM     14  C   UNL     1     -32.256  11.174 -13.984  0.00  0.00    +0.337 C 
ATOM     15  O   UNL     1     -32.808  10.697 -12.955  0.00  0.00    -0.248 OA
BRANCH  14  16
ATOM     16  O   UNL     1     -30.967  10.776 -14.327  0.00  0.00    -0.479 OA
ATOM     17  H   UNL     1     -30.419  10.196 -13.703  0.00  0.00    +0.295 HD
ENDBRANCH  14  16
ENDBRANCH   6  14
ENDBRANCH   1   2
BRANCH   1  21
ATOM     18  C   UNL     1     -37.485  10.058 -18.532  0.00  0.00    +0.280 C 
ATOM     19  C   UNL     1     -36.043   9.487 -18.545  0.00  0.00    +0.201 C 
ATOM     20  C   UNL     1     -35.084  10.381 -17.727  0.00  0.00    +0.180 C 
ATOM     21  C   UNL     1     -35.543  11.847 -17.780  0.00  0.00    +0.192 C 
ATOM     22  C   UNL     1     -36.985  11.938 -17.192  0.00  0.00    +0.260 C 
ATOM     23  O   UNL     1     -37.753  10.743 -17.319  0.00  0.00    -0.332 OA
BRANCH  18  24
ATOM     24  O   UNL     1     -38.416   9.022 -18.703  0.00  0.00    -0.365 OA
ATOM     25  H   UNL     1     -39.024   9.041 -17.917  0.00  0.00    +0.213 HD
ENDBRANCH  18  24
BRANCH  19  26
ATOM     26  O   UNL     1     -35.593   9.384 -19.873  0.00  0.00    -0.384 OA
ATOM     27  H   UNL     1     -35.318   8.440 -20.010  0.00  0.00    +0.210 HD
ENDBRANCH  19  26
BRANCH  20  28
ATOM     28  O   UNL     1     -33.773  10.258 -18.218  0.00  0.00    -0.386 OA
ATOM     29  H   UNL     1     -33.160  10.397 -17.449  0.00  0.00    +0.210 HD
ENDBRANCH  20  28
BRANCH  22  30
ATOM     30  C   UNL     1     -37.755  13.109 -17.741  0.00  0.00    +0.337 C 
ATOM     31  O   UNL     1     -38.998  13.009 -17.931  0.00  0.00    -0.248 OA
BRANCH  30  32
ATOM     32  O   UNL     1     -37.102  14.294 -18.064  0.00  0.00    -0.479 OA
ATOM     33  H   UNL     1     -37.380  15.172 -17.642  0.00  0.00    +0.295 HD
ENDBRANCH  30  32
ENDBRANCH  22  30
ENDBRANCH   1  21
TORSDOF 12
ENDMDL
