MODEL 12
REMARK VINA RESULT:    -6.336      3.174      5.273
REMARK INTER + INTRA:         -10.588
REMARK INTER:                  -9.437
REMARK INTRA:                  -1.151
REMARK UNBOUND:                -1.289
REMARK  Name = BEM
REMARK  12 active torsions:
REMARK  status: ('A' for Active; 'I' for Inactive)
REMARK    1  A    between atoms: C_1  and  O_20
REMARK    2  A    between atoms: C_2  and  O_3
REMARK    3  A    between atoms: C_4  and  O_5
REMARK    4  A    between atoms: C_6  and  O_7
REMARK    5  A    between atoms: C_8  and  C_10
REMARK    6  A    between atoms: C_10  and  O_11
REMARK    7  A    between atoms: C_13  and  O_14
REMARK    8  A    between atoms: C_15  and  O_16
REMARK    9  A    between atoms: C_17  and  O_18
REMARK   10  A    between atoms: C_19  and  O_20
REMARK   11  A    between atoms: C_21  and  C_23
REMARK   12  A    between atoms: C_23  and  O_25
REMARK                            x       y       z     vdW  Elec       q    Type
REMARK                         _______ _______ _______ _____ _____    ______ ____
ROOT
ATOM      1  O   UNL     1     -35.575  11.077 -13.083  0.00  0.00    -0.340 OA
ENDROOT
BRANCH   1   2
ATOM      2  C   UNL     1     -35.764  12.393 -12.580  0.00  0.00    +0.283 C 
ATOM      3  C   UNL     1     -36.861  13.140 -13.374  0.00  0.00    +0.201 C 
ATOM      4  C   UNL     1     -36.390  13.404 -14.815  0.00  0.00    +0.179 C 
ATOM      5  C   UNL     1     -35.007  14.073 -14.809  0.00  0.00    +0.185 C 
ATOM      6  C   UNL     1     -34.040  13.249 -13.932  0.00  0.00    +0.260 C 
ATOM      7  O   UNL     1     -34.540  13.111 -12.611  0.00  0.00    -0.332 OA
BRANCH   3   8
ATOM      8  O   UNL     1     -37.158  14.361 -12.745  0.00  0.00    -0.384 OA
ATOM      9  H   UNL     1     -37.088  15.067 -13.439  0.00  0.00    +0.210 HD
ENDBRANCH   3   8
BRANCH   4  10
ATOM     10  O   UNL     1     -37.310  14.227 -15.483  0.00  0.00    -0.386 OA
ATOM     11  H   UNL     1     -37.916  14.600 -14.790  0.00  0.00    +0.210 HD
ENDBRANCH   4  10
BRANCH   5  12
ATOM     12  O   UNL     1     -34.507  14.144 -16.120  0.00  0.00    -0.386 OA
ATOM     13  H   UNL     1     -34.645  15.077 -16.432  0.00  0.00    +0.210 HD
ENDBRANCH   5  12
BRANCH   6  14
ATOM     14  C   UNL     1     -32.703  13.928 -13.869  0.00  0.00    +0.337 C 
ATOM     15  O   UNL     1     -32.539  14.940 -13.134  0.00  0.00    -0.248 OA
BRANCH  14  16
ATOM     16  O   UNL     1     -31.651  13.459 -14.650  0.00  0.00    -0.479 OA
ATOM     17  H   UNL     1     -31.616  13.653 -15.644  0.00  0.00    +0.295 HD
ENDBRANCH  14  16
ENDBRANCH   6  14
ENDBRANCH   1   2
BRANCH   1  21
ATOM     18  C   UNL     1     -33.512   8.127 -11.076  0.00  0.00    +0.280 C 
ATOM     19  C   UNL     1     -34.989   8.275 -10.630  0.00  0.00    +0.201 C 
ATOM     20  C   UNL     1     -35.770   9.201 -11.589  0.00  0.00    +0.180 C 
ATOM     21  C   UNL     1     -34.832  10.259 -12.191  0.00  0.00    +0.192 C 
ATOM     22  C   UNL     1     -33.692   9.530 -12.967  0.00  0.00    +0.260 C 
ATOM     23  O   UNL     1     -33.391   8.222 -12.485  0.00  0.00    -0.332 OA
BRANCH  18  24
ATOM     24  O   UNL     1     -32.997   6.895 -10.642  0.00  0.00    -0.365 OA
ATOM     25  H   UNL     1     -33.754   6.382 -10.254  0.00  0.00    +0.213 HD
ENDBRANCH  18  24
BRANCH  19  26
ATOM     26  O   UNL     1     -35.033   8.787  -9.321  0.00  0.00    -0.384 OA
ATOM     27  H   UNL     1     -35.960   8.652  -8.991  0.00  0.00    +0.210 HD
ENDBRANCH  19  26
BRANCH  20  28
ATOM     28  O   UNL     1     -36.833   9.817 -10.907  0.00  0.00    -0.386 OA
ATOM     29  H   UNL     1     -36.871  10.759 -11.219  0.00  0.00    +0.210 HD
ENDBRANCH  20  28
BRANCH  22  30
ATOM     30  C   UNL     1     -32.434  10.354 -13.047  0.00  0.00    +0.337 C 
ATOM     31  O   UNL     1     -32.009  10.951 -12.021  0.00  0.00    -0.248 OA
BRANCH  30  32
ATOM     32  O   UNL     1     -31.750  10.483 -14.251  0.00  0.00    -0.479 OA
ATOM     33  H   UNL     1     -30.800  10.834 -14.274  0.00  0.00    +0.295 HD
ENDBRANCH  30  32
ENDBRANCH  22  30
ENDBRANCH   1  21
TORSDOF 12
ENDMDL
