MODEL 5
REMARK VINA RESULT:    -6.748      1.580      3.501
REMARK INTER + INTRA:         -11.193
REMARK INTER:                 -10.533
REMARK INTRA:                  -0.660
REMARK UNBOUND:                -1.289
REMARK  Name = BEM
REMARK  12 active torsions:
REMARK  status: ('A' for Active; 'I' for Inactive)
REMARK    1  A    between atoms: C_1  and  O_20
REMARK    2  A    between atoms: C_2  and  O_3
REMARK    3  A    between atoms: C_4  and  O_5
REMARK    4  A    between atoms: C_6  and  O_7
REMARK    5  A    between atoms: C_8  and  C_10
REMARK    6  A    between atoms: C_10  and  O_11
REMARK    7  A    between atoms: C_13  and  O_14
REMARK    8  A    between atoms: C_15  and  O_16
REMARK    9  A    between atoms: C_17  and  O_18
REMARK   10  A    between atoms: C_19  and  O_20
REMARK   11  A    between atoms: C_21  and  C_23
REMARK   12  A    between atoms: C_23  and  O_25
REMARK                            x       y       z     vdW  Elec       q    Type
REMARK                         _______ _______ _______ _____ _____    ______ ____
ROOT
ATOM      1  O   UNL     1     -35.278  10.480 -15.682  0.00  0.00    -0.340 OA
ENDROOT
BRANCH   1   2
ATOM      2  C   UNL     1     -34.296  11.148 -16.463  0.00  0.00    +0.283 C 
ATOM      3  C   UNL     1     -32.875  10.648 -16.115  0.00  0.00    +0.201 C 
ATOM      4  C   UNL     1     -32.498  11.067 -14.684  0.00  0.00    +0.179 C 
ATOM      5  C   UNL     1     -32.734  12.573 -14.490  0.00  0.00    +0.185 C 
ATOM      6  C   UNL     1     -34.169  12.930 -14.932  0.00  0.00    +0.260 C 
ATOM      7  O   UNL     1     -34.397  12.553 -16.281  0.00  0.00    -0.332 OA
BRANCH   3   8
ATOM      8  O   UNL     1     -31.945  11.183 -17.023  0.00  0.00    -0.384 OA
ATOM      9  H   UNL     1     -31.166  11.489 -16.489  0.00  0.00    +0.210 HD
ENDBRANCH   3   8
BRANCH   4  10
ATOM     10  O   UNL     1     -31.150  10.765 -14.428  0.00  0.00    -0.386 OA
ATOM     11  H   UNL     1     -30.862  11.353 -13.682  0.00  0.00    +0.210 HD
ENDBRANCH   4  10
BRANCH   5  12
ATOM     12  O   UNL     1     -32.562  12.911 -13.137  0.00  0.00    -0.386 OA
ATOM     13  H   UNL     1     -32.997  12.195 -12.603  0.00  0.00    +0.210 HD
ENDBRANCH   5  12
BRANCH   6  14
ATOM     14  C   UNL     1     -34.390  14.409 -14.805  0.00  0.00    +0.337 C 
ATOM     15  O   UNL     1     -35.132  14.863 -13.892  0.00  0.00    -0.248 OA
BRANCH  14  16
ATOM     16  O   UNL     1     -33.803  15.278 -15.719  0.00  0.00    -0.479 OA
ATOM     17  H   UNL     1     -33.139  15.980 -15.415  0.00  0.00    +0.295 HD
ENDBRANCH  14  16
ENDBRANCH   6  14
ENDBRANCH   1   2
BRANCH   1  21
ATOM     18  C   UNL     1     -38.641  10.751 -18.051  0.00  0.00    +0.280 C 
ATOM     19  C   UNL     1     -38.857  11.239 -16.595  0.00  0.00    +0.201 C 
ATOM     20  C   UNL     1     -37.512  11.360 -15.844  0.00  0.00    +0.180 C 
ATOM     21  C   UNL     1     -36.508  10.326 -16.377  0.00  0.00    +0.192 C 
ATOM     22  C   UNL     1     -36.290  10.584 -17.900  0.00  0.00    +0.260 C 
ATOM     23  O   UNL     1     -37.395  11.197 -18.560  0.00  0.00    -0.332 OA
BRANCH  18  24
ATOM     24  O   UNL     1     -39.679  11.214 -18.874  0.00  0.00    -0.365 OA
ATOM     25  H   UNL     1     -40.108  11.977 -18.405  0.00  0.00    +0.213 HD
ENDBRANCH  18  24
BRANCH  19  26
ATOM     26  O   UNL     1     -39.707  10.343 -15.923  0.00  0.00    -0.384 OA
ATOM     27  H   UNL     1     -40.624  10.505 -16.269  0.00  0.00    +0.210 HD
ENDBRANCH  19  26
BRANCH  20  28
ATOM     28  O   UNL     1     -37.712  11.184 -14.463  0.00  0.00    -0.386 OA
ATOM     29  H   UNL     1     -36.825  10.987 -14.064  0.00  0.00    +0.210 HD
ENDBRANCH  20  28
BRANCH  22  30
ATOM     30  C   UNL     1     -35.871   9.341 -18.638  0.00  0.00    +0.337 C 
ATOM     31  O   UNL     1     -36.011   8.212 -18.095  0.00  0.00    -0.248 OA
BRANCH  30  32
ATOM     32  O   UNL     1     -35.308   9.429 -19.908  0.00  0.00    -0.479 OA
ATOM     33  H   UNL     1     -34.357   9.753 -20.033  0.00  0.00    +0.295 HD
ENDBRANCH  30  32
ENDBRANCH  22  30
ENDBRANCH   1  21
TORSDOF 12
ENDMDL
