MODEL 18
REMARK VINA RESULT:    -6.140      2.443      6.039
REMARK INTER + INTRA:         -10.301
REMARK INTER:                  -9.445
REMARK INTRA:                  -0.855
REMARK UNBOUND:                -1.289
REMARK  Name = BEM
REMARK  12 active torsions:
REMARK  status: ('A' for Active; 'I' for Inactive)
REMARK    1  A    between atoms: C_1  and  O_20
REMARK    2  A    between atoms: C_2  and  O_3
REMARK    3  A    between atoms: C_4  and  O_5
REMARK    4  A    between atoms: C_6  and  O_7
REMARK    5  A    between atoms: C_8  and  C_10
REMARK    6  A    between atoms: C_10  and  O_11
REMARK    7  A    between atoms: C_13  and  O_14
REMARK    8  A    between atoms: C_15  and  O_16
REMARK    9  A    between atoms: C_17  and  O_18
REMARK   10  A    between atoms: C_19  and  O_20
REMARK   11  A    between atoms: C_21  and  C_23
REMARK   12  A    between atoms: C_23  and  O_25
REMARK                            x       y       z     vdW  Elec       q    Type
REMARK                         _______ _______ _______ _____ _____    ______ ____
ROOT
ATOM      1  O   UNL     1     -35.634  13.040 -16.159  0.00  0.00    -0.340 OA
ENDROOT
BRANCH   1   2
ATOM      2  C   UNL     1     -36.389  13.973 -15.397  0.00  0.00    +0.283 C 
ATOM      3  C   UNL     1     -37.733  13.359 -14.939  0.00  0.00    +0.201 C 
ATOM      4  C   UNL     1     -38.646  13.110 -16.151  0.00  0.00    +0.179 C 
ATOM      5  C   UNL     1     -38.758  14.383 -17.004  0.00  0.00    +0.185 C 
ATOM      6  C   UNL     1     -37.345  14.909 -17.332  0.00  0.00    +0.260 C 
ATOM      7  O   UNL     1     -36.605  15.159 -16.148  0.00  0.00    -0.332 OA
BRANCH   3   8
ATOM      8  O   UNL     1     -38.372  14.228 -14.038  0.00  0.00    -0.384 OA
ATOM      9  H   UNL     1     -37.799  15.035 -13.961  0.00  0.00    +0.210 HD
ENDBRANCH   3   8
BRANCH   4  10
ATOM     10  O   UNL     1     -39.924  12.715 -15.724  0.00  0.00    -0.386 OA
ATOM     11  H   UNL     1     -40.198  11.957 -16.305  0.00  0.00    +0.210 HD
ENDBRANCH   4  10
BRANCH   5  12
ATOM     12  O   UNL     1     -39.441  14.097 -18.199  0.00  0.00    -0.386 OA
ATOM     13  H   UNL     1     -39.607  13.118 -18.208  0.00  0.00    +0.210 HD
ENDBRANCH   5  12
BRANCH   6  14
ATOM     14  C   UNL     1     -37.443  16.187 -18.113  0.00  0.00    +0.337 C 
ATOM     15  O   UNL     1     -36.398  16.807 -18.448  0.00  0.00    -0.248 OA
BRANCH  14  16
ATOM     16  O   UNL     1     -38.693  16.706 -18.438  0.00  0.00    -0.479 OA
ATOM     17  H   UNL     1     -39.367  16.151 -18.952  0.00  0.00    +0.295 HD
ENDBRANCH  14  16
ENDBRANCH   6  14
ENDBRANCH   1   2
BRANCH   1  21
ATOM     18  C   UNL     1     -32.708  11.821 -13.524  0.00  0.00    +0.280 C 
ATOM     19  C   UNL     1     -32.674  13.338 -13.844  0.00  0.00    +0.201 C 
ATOM     20  C   UNL     1     -33.939  13.772 -14.616  0.00  0.00    +0.180 C 
ATOM     21  C   UNL     1     -34.460  12.614 -15.482  0.00  0.00    +0.192 C 
ATOM     22  C   UNL     1     -34.794  11.408 -14.551  0.00  0.00    +0.260 C 
ATOM     23  O   UNL     1     -34.039  11.367 -13.343  0.00  0.00    -0.332 OA
BRANCH  18  24
ATOM     24  O   UNL     1     -31.958  11.554 -12.369  0.00  0.00    -0.365 OA
ATOM     25  H   UNL     1     -32.302  10.705 -11.985  0.00  0.00    +0.213 HD
ENDBRANCH  18  24
BRANCH  19  26
ATOM     26  O   UNL     1     -31.523  13.631 -14.597  0.00  0.00    -0.384 OA
ATOM     27  H   UNL     1     -31.052  14.368 -14.127  0.00  0.00    +0.210 HD
ENDBRANCH  19  26
BRANCH  20  28
ATOM     28  O   UNL     1     -33.657  14.895 -15.415  0.00  0.00    -0.386 OA
ATOM     29  H   UNL     1     -33.250  15.579 -14.821  0.00  0.00    +0.210 HD
ENDBRANCH  20  28
BRANCH  22  30
ATOM     30  C   UNL     1     -34.699  10.088 -15.266  0.00  0.00    +0.337 C 
ATOM     31  O   UNL     1     -34.611   9.019 -14.603  0.00  0.00    -0.248 OA
BRANCH  30  32
ATOM     32  O   UNL     1     -34.682  10.037 -16.657  0.00  0.00    -0.479 OA
ATOM     33  H   UNL     1     -35.365  10.547 -17.204  0.00  0.00    +0.295 HD
ENDBRANCH  30  32
ENDBRANCH  22  30
ENDBRANCH   1  21
TORSDOF 12
ENDMDL
