MODEL 20
REMARK VINA RESULT:    -5.928      4.221      7.004
REMARK INTER + INTRA:          -9.990
REMARK INTER:                  -8.501
REMARK INTRA:                  -1.488
REMARK UNBOUND:                -1.289
REMARK  Name = BEM
REMARK  12 active torsions:
REMARK  status: ('A' for Active; 'I' for Inactive)
REMARK    1  A    between atoms: C_1  and  O_20
REMARK    2  A    between atoms: C_2  and  O_3
REMARK    3  A    between atoms: C_4  and  O_5
REMARK    4  A    between atoms: C_6  and  O_7
REMARK    5  A    between atoms: C_8  and  C_10
REMARK    6  A    between atoms: C_10  and  O_11
REMARK    7  A    between atoms: C_13  and  O_14
REMARK    8  A    between atoms: C_15  and  O_16
REMARK    9  A    between atoms: C_17  and  O_18
REMARK   10  A    between atoms: C_19  and  O_20
REMARK   11  A    between atoms: C_21  and  C_23
REMARK   12  A    between atoms: C_23  and  O_25
REMARK                            x       y       z     vdW  Elec       q    Type
REMARK                         _______ _______ _______ _____ _____    ______ ____
ROOT
ATOM      1  O   UNL     1     -33.662  10.208 -11.720  0.00  0.00    -0.340 OA
ENDROOT
BRANCH   1   2
ATOM      2  C   UNL     1     -34.281  10.394 -12.986  0.00  0.00    +0.283 C 
ATOM      3  C   UNL     1     -33.240  10.786 -14.062  0.00  0.00    +0.201 C 
ATOM      4  C   UNL     1     -32.670  12.184 -13.767  0.00  0.00    +0.179 C 
ATOM      5  C   UNL     1     -33.811  13.191 -13.554  0.00  0.00    +0.185 C 
ATOM      6  C   UNL     1     -34.795  12.638 -12.501  0.00  0.00    +0.260 C 
ATOM      7  O   UNL     1     -35.305  11.373 -12.893  0.00  0.00    -0.332 OA
BRANCH   3   8
ATOM      8  O   UNL     1     -33.841  10.781 -15.332  0.00  0.00    -0.384 OA
ATOM      9  H   UNL     1     -33.114  10.910 -15.995  0.00  0.00    +0.210 HD
ENDBRANCH   3   8
BRANCH   4  10
ATOM     10  O   UNL     1     -31.857  12.610 -14.829  0.00  0.00    -0.386 OA
ATOM     11  H   UNL     1     -32.398  12.520 -15.657  0.00  0.00    +0.210 HD
ENDBRANCH   4  10
BRANCH   5  12
ATOM     12  O   UNL     1     -33.286  14.416 -13.108  0.00  0.00    -0.386 OA
ATOM     13  H   UNL     1     -33.772  14.651 -12.274  0.00  0.00    +0.210 HD
ENDBRANCH   5  12
BRANCH   6  14
ATOM     14  C   UNL     1     -35.946  13.585 -12.331  0.00  0.00    +0.337 C 
ATOM     15  O   UNL     1     -36.146  14.500 -13.175  0.00  0.00    -0.248 OA
BRANCH  14  16
ATOM     16  O   UNL     1     -36.775  13.475 -11.218  0.00  0.00    -0.479 OA
ATOM     17  H   UNL     1     -37.334  14.260 -10.907  0.00  0.00    +0.295 HD
ENDBRANCH  14  16
ENDBRANCH   6  14
ENDBRANCH   1   2
BRANCH   1  21
ATOM     18  C   UNL     1     -35.253   7.888  -8.708  0.00  0.00    +0.280 C 
ATOM     19  C   UNL     1     -34.408   7.091  -9.735  0.00  0.00    +0.201 C 
ATOM     20  C   UNL     1     -33.632   8.042 -10.673  0.00  0.00    +0.180 C 
ATOM     21  C   UNL     1     -34.413   9.351 -10.873  0.00  0.00    +0.192 C 
ATOM     22  C   UNL     1     -34.615  10.026  -9.481  0.00  0.00    +0.260 C 
ATOM     23  O   UNL     1     -34.632   9.120  -8.380  0.00  0.00    -0.332 OA
BRANCH  18  24
ATOM     24  O   UNL     1     -35.437   7.129  -7.541  0.00  0.00    -0.365 OA
ATOM     25  H   UNL     1     -35.226   7.720  -6.771  0.00  0.00    +0.213 HD
ENDBRANCH  18  24
BRANCH  19  26
ATOM     26  O   UNL     1     -35.253   6.254 -10.486  0.00  0.00    -0.384 OA
ATOM     27  H   UNL     1     -34.723   5.934 -11.262  0.00  0.00    +0.210 HD
ENDBRANCH  19  26
BRANCH  20  28
ATOM     28  O   UNL     1     -33.399   7.416 -11.910  0.00  0.00    -0.386 OA
ATOM     29  H   UNL     1     -33.551   8.098 -12.615  0.00  0.00    +0.210 HD
ENDBRANCH  20  28
BRANCH  22  30
ATOM     30  C   UNL     1     -35.833  10.909  -9.444  0.00  0.00    +0.337 C 
ATOM     31  O   UNL     1     -36.859  10.592 -10.105  0.00  0.00    -0.248 OA
BRANCH  30  32
ATOM     32  O   UNL     1     -35.829  12.088  -8.704  0.00  0.00    -0.479 OA
ATOM     33  H   UNL     1     -36.381  12.885  -8.994  0.00  0.00    +0.295 HD
ENDBRANCH  30  32
ENDBRANCH  22  30
ENDBRANCH   1  21
TORSDOF 12
ENDMDL
