MODEL 8
REMARK VINA RESULT:    -6.526      1.769      4.015
REMARK INTER + INTRA:         -10.866
REMARK INTER:                  -9.167
REMARK INTRA:                  -1.700
REMARK UNBOUND:                -1.289
REMARK  Name = BEM
REMARK  12 active torsions:
REMARK  status: ('A' for Active; 'I' for Inactive)
REMARK    1  A    between atoms: C_1  and  O_20
REMARK    2  A    between atoms: C_2  and  O_3
REMARK    3  A    between atoms: C_4  and  O_5
REMARK    4  A    between atoms: C_6  and  O_7
REMARK    5  A    between atoms: C_8  and  C_10
REMARK    6  A    between atoms: C_10  and  O_11
REMARK    7  A    between atoms: C_13  and  O_14
REMARK    8  A    between atoms: C_15  and  O_16
REMARK    9  A    between atoms: C_17  and  O_18
REMARK   10  A    between atoms: C_19  and  O_20
REMARK   11  A    between atoms: C_21  and  C_23
REMARK   12  A    between atoms: C_23  and  O_25
REMARK                            x       y       z     vdW  Elec       q    Type
REMARK                         _______ _______ _______ _____ _____    ______ ____
ROOT
ATOM      1  O   UNL     1     -34.971  10.515 -15.831  0.00  0.00    -0.340 OA
ENDROOT
BRANCH   1   2
ATOM      2  C   UNL     1     -34.225  11.725 -15.799  0.00  0.00    +0.283 C 
ATOM      3  C   UNL     1     -32.969  11.580 -14.908  0.00  0.00    +0.201 C 
ATOM      4  C   UNL     1     -33.379  11.407 -13.435  0.00  0.00    +0.179 C 
ATOM      5  C   UNL     1     -34.359  12.516 -13.020  0.00  0.00    +0.185 C 
ATOM      6  C   UNL     1     -35.523  12.578 -14.032  0.00  0.00    +0.260 C 
ATOM      7  O   UNL     1     -35.044  12.794 -15.350  0.00  0.00    -0.332 OA
BRANCH   3   8
ATOM      8  O   UNL     1     -32.157  12.719 -15.040  0.00  0.00    -0.384 OA
ATOM      9  H   UNL     1     -32.527  13.251 -15.792  0.00  0.00    +0.210 HD
ENDBRANCH   3   8
BRANCH   4  10
ATOM     10  O   UNL     1     -32.245  11.448 -12.608  0.00  0.00    -0.386 OA
ATOM     11  H   UNL     1     -31.982  10.505 -12.436  0.00  0.00    +0.210 HD
ENDBRANCH   4  10
BRANCH   5  12
ATOM     12  O   UNL     1     -34.866  12.247 -11.738  0.00  0.00    -0.386 OA
ATOM     13  H   UNL     1     -34.163  12.512 -11.088  0.00  0.00    +0.210 HD
ENDBRANCH   5  12
BRANCH   6  14
ATOM     14  C   UNL     1     -36.454  13.698 -13.672  0.00  0.00    +0.337 C 
ATOM     15  O   UNL     1     -36.176  14.471 -12.715  0.00  0.00    -0.248 OA
BRANCH  14  16
ATOM     16  O   UNL     1     -37.644  13.862 -14.373  0.00  0.00    -0.479 OA
ATOM     17  H   UNL     1     -37.639  14.024 -15.374  0.00  0.00    +0.295 HD
ENDBRANCH  14  16
ENDBRANCH   6  14
ENDBRANCH   1   2
BRANCH   1  21
ATOM     18  C   UNL     1     -37.427   9.423 -18.956  0.00  0.00    +0.280 C 
ATOM     19  C   UNL     1     -35.965   8.930 -19.104  0.00  0.00    +0.201 C 
ATOM     20  C   UNL     1     -35.172   9.140 -17.795  0.00  0.00    +0.180 C 
ATOM     21  C   UNL     1     -35.706  10.366 -17.038  0.00  0.00    +0.192 C 
ATOM     22  C   UNL     1     -37.214  10.132 -16.714  0.00  0.00    +0.260 C 
ATOM     23  O   UNL     1     -37.887   9.266 -17.624  0.00  0.00    -0.332 OA
BRANCH  18  24
ATOM     24  O   UNL     1     -38.267   8.715 -19.830  0.00  0.00    -0.365 OA
ATOM     25  H   UNL     1     -38.096   7.748 -19.681  0.00  0.00    +0.213 HD
ENDBRANCH  18  24
BRANCH  19  26
ATOM     26  O   UNL     1     -35.344   9.619 -20.162  0.00  0.00    -0.384 OA
ATOM     27  H   UNL     1     -35.922  10.398 -20.374  0.00  0.00    +0.210 HD
ENDBRANCH  19  26
BRANCH  20  28
ATOM     28  O   UNL     1     -33.803   9.294 -18.079  0.00  0.00    -0.386 OA
ATOM     29  H   UNL     1     -33.311   9.118 -17.235  0.00  0.00    +0.210 HD
ENDBRANCH  20  28
BRANCH  22  30
ATOM     30  C   UNL     1     -37.975  11.422 -16.567  0.00  0.00    +0.337 C 
ATOM     31  O   UNL     1     -39.064  11.440 -15.932  0.00  0.00    -0.248 OA
BRANCH  30  32
ATOM     32  O   UNL     1     -37.499  12.594 -17.149  0.00  0.00    -0.479 OA
ATOM     33  H   UNL     1     -36.733  13.108 -16.730  0.00  0.00    +0.295 HD
ENDBRANCH  30  32
ENDBRANCH  22  30
ENDBRANCH   1  21
TORSDOF 12
ENDMDL
