MODEL 11
REMARK VINA RESULT:    -6.400      1.988      3.774
REMARK INTER + INTRA:         -10.682
REMARK INTER:                  -9.675
REMARK INTRA:                  -1.008
REMARK UNBOUND:                -1.289
REMARK  Name = BEM
REMARK  12 active torsions:
REMARK  status: ('A' for Active; 'I' for Inactive)
REMARK    1  A    between atoms: C_1  and  O_20
REMARK    2  A    between atoms: C_2  and  O_3
REMARK    3  A    between atoms: C_4  and  O_5
REMARK    4  A    between atoms: C_6  and  O_7
REMARK    5  A    between atoms: C_8  and  C_10
REMARK    6  A    between atoms: C_10  and  O_11
REMARK    7  A    between atoms: C_13  and  O_14
REMARK    8  A    between atoms: C_15  and  O_16
REMARK    9  A    between atoms: C_17  and  O_18
REMARK   10  A    between atoms: C_19  and  O_20
REMARK   11  A    between atoms: C_21  and  C_23
REMARK   12  A    between atoms: C_23  and  O_25
REMARK                            x       y       z     vdW  Elec       q    Type
REMARK                         _______ _______ _______ _____ _____    ______ ____
ROOT
ATOM      1  O   UNL     1     -34.784  13.220 -16.309  0.00  0.00    -0.340 OA
ENDROOT
BRANCH   1   2
ATOM      2  C   UNL     1     -34.963  13.207 -14.899  0.00  0.00    +0.283 C 
ATOM      3  C   UNL     1     -33.862  14.032 -14.191  0.00  0.00    +0.201 C 
ATOM      4  C   UNL     1     -32.495  13.347 -14.355  0.00  0.00    +0.179 C 
ATOM      5  C   UNL     1     -32.585  11.870 -13.938  0.00  0.00    +0.185 C 
ATOM      6  C   UNL     1     -33.760  11.198 -14.679  0.00  0.00    +0.260 C 
ATOM      7  O   UNL     1     -34.981  11.871 -14.419  0.00  0.00    -0.332 OA
BRANCH   3   8
ATOM      8  O   UNL     1     -34.165  14.158 -12.825  0.00  0.00    -0.384 OA
ATOM      9  H   UNL     1     -33.375  14.576 -12.393  0.00  0.00    +0.210 HD
ENDBRANCH   3   8
BRANCH   4  10
ATOM     10  O   UNL     1     -31.528  13.999 -13.573  0.00  0.00    -0.386 OA
ATOM     11  H   UNL     1     -31.616  14.970 -13.761  0.00  0.00    +0.210 HD
ENDBRANCH   4  10
BRANCH   5  12
ATOM     12  O   UNL     1     -31.387  11.210 -14.261  0.00  0.00    -0.386 OA
ATOM     13  H   UNL     1     -31.409  10.331 -13.801  0.00  0.00    +0.210 HD
ENDBRANCH   5  12
BRANCH   6  14
ATOM     14  C   UNL     1     -33.897   9.771 -14.233  0.00  0.00    +0.337 C 
ATOM     15  O   UNL     1     -33.347   9.385 -13.166  0.00  0.00    -0.248 OA
BRANCH  14  16
ATOM     16  O   UNL     1     -34.602   8.865 -15.018  0.00  0.00    -0.479 OA
ATOM     17  H   UNL     1     -35.590   8.701 -14.861  0.00  0.00    +0.295 HD
ENDBRANCH  14  16
ENDBRANCH   6  14
ENDBRANCH   1   2
BRANCH   1  21
ATOM     18  C   UNL     1     -38.692  13.461 -17.596  0.00  0.00    +0.280 C 
ATOM     19  C   UNL     1     -38.185  12.009 -17.395  0.00  0.00    +0.201 C 
ATOM     20  C   UNL     1     -36.822  11.992 -16.669  0.00  0.00    +0.180 C 
ATOM     21  C   UNL     1     -36.019  13.258 -17.010  0.00  0.00    +0.192 C 
ATOM     22  C   UNL     1     -36.843  14.505 -16.563  0.00  0.00    +0.260 C 
ATOM     23  O   UNL     1     -38.255  14.305 -16.545  0.00  0.00    -0.332 OA
BRANCH  18  24
ATOM     24  O   UNL     1     -40.095  13.477 -17.660  0.00  0.00    -0.365 OA
ATOM     25  H   UNL     1     -40.410  12.569 -17.414  0.00  0.00    +0.213 HD
ENDBRANCH  18  24
BRANCH  19  26
ATOM     26  O   UNL     1     -38.075  11.376 -18.646  0.00  0.00    -0.384 OA
ATOM     27  H   UNL     1     -38.445  10.461 -18.538  0.00  0.00    +0.210 HD
ENDBRANCH  19  26
BRANCH  20  28
ATOM     28  O   UNL     1     -36.098  10.840 -17.026  0.00  0.00    -0.386 OA
ATOM     29  H   UNL     1     -35.443  11.112 -17.720  0.00  0.00    +0.210 HD
ENDBRANCH  20  28
BRANCH  22  30
ATOM     30  C   UNL     1     -36.504  15.733 -17.365  0.00  0.00    +0.337 C 
ATOM     31  O   UNL     1     -36.268  16.822 -16.775  0.00  0.00    -0.248 OA
BRANCH  30  32
ATOM     32  O   UNL     1     -36.475  15.683 -18.755  0.00  0.00    -0.479 OA
ATOM     33  H   UNL     1     -36.098  14.876 -19.238  0.00  0.00    +0.295 HD
ENDBRANCH  30  32
ENDBRANCH  22  30
ENDBRANCH   1  21
TORSDOF 12
ENDMDL
