MODEL 7
REMARK VINA RESULT:    -6.585      2.270      3.444
REMARK INTER + INTRA:         -10.954
REMARK INTER:                  -9.512
REMARK INTRA:                  -1.442
REMARK UNBOUND:                -1.289
REMARK  Name = BEM
REMARK  12 active torsions:
REMARK  status: ('A' for Active; 'I' for Inactive)
REMARK    1  A    between atoms: C_1  and  O_20
REMARK    2  A    between atoms: C_2  and  O_3
REMARK    3  A    between atoms: C_4  and  O_5
REMARK    4  A    between atoms: C_6  and  O_7
REMARK    5  A    between atoms: C_8  and  C_10
REMARK    6  A    between atoms: C_10  and  O_11
REMARK    7  A    between atoms: C_13  and  O_14
REMARK    8  A    between atoms: C_15  and  O_16
REMARK    9  A    between atoms: C_17  and  O_18
REMARK   10  A    between atoms: C_19  and  O_20
REMARK   11  A    between atoms: C_21  and  C_23
REMARK   12  A    between atoms: C_23  and  O_25
REMARK                            x       y       z     vdW  Elec       q    Type
REMARK                         _______ _______ _______ _____ _____    ______ ____
ROOT
ATOM      1  O   UNL     1     -36.260  10.626 -15.031  0.00  0.00    -0.340 OA
ENDROOT
BRANCH   1   2
ATOM      2  C   UNL     1     -35.446   9.601 -14.476  0.00  0.00    +0.283 C 
ATOM      3  C   UNL     1     -35.382   9.715 -12.935  0.00  0.00    +0.201 C 
ATOM      4  C   UNL     1     -34.627  10.992 -12.526  0.00  0.00    +0.179 C 
ATOM      5  C   UNL     1     -33.274  11.065 -13.252  0.00  0.00    +0.185 C 
ATOM      6  C   UNL     1     -33.492  10.877 -14.768  0.00  0.00    +0.260 C 
ATOM      7  O   UNL     1     -34.145   9.647 -15.041  0.00  0.00    -0.332 OA
BRANCH   3   8
ATOM      8  O   UNL     1     -34.731   8.591 -12.400  0.00  0.00    -0.384 OA
ATOM      9  H   UNL     1     -34.468   8.826 -11.472  0.00  0.00    +0.210 HD
ENDBRANCH   3   8
BRANCH   4  10
ATOM     10  O   UNL     1     -34.419  11.010 -11.138  0.00  0.00    -0.386 OA
ATOM     11  H   UNL     1     -35.279  10.745 -10.717  0.00  0.00    +0.210 HD
ENDBRANCH   4  10
BRANCH   5  12
ATOM     12  O   UNL     1     -32.674  12.314 -13.015  0.00  0.00    -0.386 OA
ATOM     13  H   UNL     1     -32.654  12.442 -12.031  0.00  0.00    +0.210 HD
ENDBRANCH   5  12
BRANCH   6  14
ATOM     14  C   UNL     1     -32.170  10.885 -15.479  0.00  0.00    +0.337 C 
ATOM     15  O   UNL     1     -32.127  10.992 -16.735  0.00  0.00    -0.248 OA
BRANCH  14  16
ATOM     16  O   UNL     1     -30.992  10.739 -14.754  0.00  0.00    -0.479 OA
ATOM     17  H   UNL     1     -30.677  11.467 -14.123  0.00  0.00    +0.295 HD
ENDBRANCH  14  16
ENDBRANCH   6  14
ENDBRANCH   1   2
BRANCH   1  21
ATOM     18  C   UNL     1     -38.324  10.238 -18.578  0.00  0.00    +0.280 C 
ATOM     19  C   UNL     1     -39.149   9.844 -17.324  0.00  0.00    +0.201 C 
ATOM     20  C   UNL     1     -38.419  10.259 -16.027  0.00  0.00    +0.180 C 
ATOM     21  C   UNL     1     -36.897  10.219 -16.234  0.00  0.00    +0.192 C 
ATOM     22  C   UNL     1     -36.526  11.200 -17.388  0.00  0.00    +0.260 C 
ATOM     23  O   UNL     1     -37.564  11.411 -18.342  0.00  0.00    -0.332 OA
BRANCH  18  24
ATOM     24  O   UNL     1     -39.178  10.442 -19.673  0.00  0.00    -0.365 OA
ATOM     25  H   UNL     1     -38.610  10.710 -20.442  0.00  0.00    +0.213 HD
ENDBRANCH  18  24
BRANCH  19  26
ATOM     26  O   UNL     1     -39.374   8.456 -17.330  0.00  0.00    -0.384 OA
ATOM     27  H   UNL     1     -39.044   8.116 -18.203  0.00  0.00    +0.210 HD
ENDBRANCH  19  26
BRANCH  20  28
ATOM     28  O   UNL     1     -38.795   9.411 -14.970  0.00  0.00    -0.386 OA
ATOM     29  H   UNL     1     -37.965   8.981 -14.634  0.00  0.00    +0.210 HD
ENDBRANCH  20  28
BRANCH  22  30
ATOM     30  C   UNL     1     -35.252  10.807 -18.087  0.00  0.00    +0.337 C 
ATOM     31  O   UNL     1     -34.998   9.589 -18.291  0.00  0.00    -0.248 OA
BRANCH  30  32
ATOM     32  O   UNL     1     -34.339  11.777 -18.490  0.00  0.00    -0.479 OA
ATOM     33  H   UNL     1     -34.603  12.754 -18.532  0.00  0.00    +0.295 HD
ENDBRANCH  30  32
ENDBRANCH  22  30
ENDBRANCH   1  21
TORSDOF 12
ENDMDL
