MODEL 3
REMARK VINA RESULT:    -6.911      1.522      4.006
REMARK INTER + INTRA:         -11.432
REMARK INTER:                  -9.784
REMARK INTRA:                  -1.647
REMARK UNBOUND:                -1.289
REMARK  Name = BEM
REMARK  12 active torsions:
REMARK  status: ('A' for Active; 'I' for Inactive)
REMARK    1  A    between atoms: C_1  and  O_20
REMARK    2  A    between atoms: C_2  and  O_3
REMARK    3  A    between atoms: C_4  and  O_5
REMARK    4  A    between atoms: C_6  and  O_7
REMARK    5  A    between atoms: C_8  and  C_10
REMARK    6  A    between atoms: C_10  and  O_11
REMARK    7  A    between atoms: C_13  and  O_14
REMARK    8  A    between atoms: C_15  and  O_16
REMARK    9  A    between atoms: C_17  and  O_18
REMARK   10  A    between atoms: C_19  and  O_20
REMARK   11  A    between atoms: C_21  and  C_23
REMARK   12  A    between atoms: C_23  and  O_25
REMARK                            x       y       z     vdW  Elec       q    Type
REMARK                         _______ _______ _______ _____ _____    ______ ____
ROOT
ATOM      1  O   UNL     1     -35.573  11.203 -15.878  0.00  0.00    -0.340 OA
ENDROOT
BRANCH   1   2
ATOM      2  C   UNL     1     -34.259  11.661 -16.170  0.00  0.00    +0.283 C 
ATOM      3  C   UNL     1     -33.260  11.221 -15.074  0.00  0.00    +0.201 C 
ATOM      4  C   UNL     1     -33.571  11.940 -13.750  0.00  0.00    +0.179 C 
ATOM      5  C   UNL     1     -33.676  13.456 -13.980  0.00  0.00    +0.185 C 
ATOM      6  C   UNL     1     -34.659  13.735 -15.136  0.00  0.00    +0.260 C 
ATOM      7  O   UNL     1     -34.253  13.072 -16.323  0.00  0.00    -0.332 OA
BRANCH   3   8
ATOM      8  O   UNL     1     -31.948  11.521 -15.476  0.00  0.00    -0.384 OA
ATOM      9  H   UNL     1     -31.657  10.789 -16.080  0.00  0.00    +0.210 HD
ENDBRANCH   3   8
BRANCH   4  10
ATOM     10  O   UNL     1     -32.567  11.674 -12.805  0.00  0.00    -0.386 OA
ATOM     11  H   UNL     1     -32.147  10.814 -13.069  0.00  0.00    +0.210 HD
ENDBRANCH   4  10
BRANCH   5  12
ATOM     12  O   UNL     1     -34.137  14.083 -12.810  0.00  0.00    -0.386 OA
ATOM     13  H   UNL     1     -34.557  13.378 -12.251  0.00  0.00    +0.210 HD
ENDBRANCH   5  12
BRANCH   6  14
ATOM     14  C   UNL     1     -34.721  15.209 -15.409  0.00  0.00    +0.337 C 
ATOM     15  O   UNL     1     -35.621  15.678 -16.159  0.00  0.00    -0.248 OA
BRANCH  14  16
ATOM     16  O   UNL     1     -33.763  16.057 -14.862  0.00  0.00    -0.479 OA
ATOM     17  H   UNL     1     -33.921  17.056 -14.813  0.00  0.00    +0.295 HD
ENDBRANCH  14  16
ENDBRANCH   6  14
ENDBRANCH   1   2
BRANCH   1  21
ATOM     18  C   UNL     1     -38.308  10.088 -18.753  0.00  0.00    +0.280 C 
ATOM     19  C   UNL     1     -37.309   8.966 -18.366  0.00  0.00    +0.201 C 
ATOM     20  C   UNL     1     -36.493   9.355 -17.114  0.00  0.00    +0.180 C 
ATOM     21  C   UNL     1     -36.305  10.879 -17.051  0.00  0.00    +0.192 C 
ATOM     22  C   UNL     1     -37.712  11.552 -16.998  0.00  0.00    +0.260 C 
ATOM     23  O   UNL     1     -38.754  10.792 -17.606  0.00  0.00    -0.332 OA
BRANCH  18  24
ATOM     24  O   UNL     1     -39.410   9.541 -19.428  0.00  0.00    -0.365 OA
ATOM     25  H   UNL     1     -39.685   8.727 -18.930  0.00  0.00    +0.213 HD
ENDBRANCH  18  24
BRANCH  19  26
ATOM     26  O   UNL     1     -36.445   8.716 -19.448  0.00  0.00    -0.384 OA
ATOM     27  H   UNL     1     -36.702   7.833 -19.821  0.00  0.00    +0.210 HD
ENDBRANCH  19  26
BRANCH  20  28
ATOM     28  O   UNL     1     -35.246   8.707 -17.128  0.00  0.00    -0.386 OA
ATOM     29  H   UNL     1     -34.568   9.374 -16.845  0.00  0.00    +0.210 HD
ENDBRANCH  20  28
BRANCH  22  30
ATOM     30  C   UNL     1     -37.700  12.951 -17.554  0.00  0.00    +0.337 C 
ATOM     31  O   UNL     1     -38.771  13.615 -17.606  0.00  0.00    -0.248 OA
BRANCH  30  32
ATOM     32  O   UNL     1     -36.520  13.510 -18.034  0.00  0.00    -0.479 OA
ATOM     33  H   UNL     1     -36.518  14.420 -18.477  0.00  0.00    +0.295 HD
ENDBRANCH  30  32
ENDBRANCH  22  30
ENDBRANCH   1  21
TORSDOF 12
ENDMDL
