MODEL 19
REMARK VINA RESULT:    -6.005      4.372      6.373
REMARK INTER + INTRA:         -10.102
REMARK INTER:                  -8.994
REMARK INTRA:                  -1.108
REMARK UNBOUND:                -1.289
REMARK  Name = BEM
REMARK  12 active torsions:
REMARK  status: ('A' for Active; 'I' for Inactive)
REMARK    1  A    between atoms: C_1  and  O_20
REMARK    2  A    between atoms: C_2  and  O_3
REMARK    3  A    between atoms: C_4  and  O_5
REMARK    4  A    between atoms: C_6  and  O_7
REMARK    5  A    between atoms: C_8  and  C_10
REMARK    6  A    between atoms: C_10  and  O_11
REMARK    7  A    between atoms: C_13  and  O_14
REMARK    8  A    between atoms: C_15  and  O_16
REMARK    9  A    between atoms: C_17  and  O_18
REMARK   10  A    between atoms: C_19  and  O_20
REMARK   11  A    between atoms: C_21  and  C_23
REMARK   12  A    between atoms: C_23  and  O_25
REMARK                            x       y       z     vdW  Elec       q    Type
REMARK                         _______ _______ _______ _____ _____    ______ ____
ROOT
ATOM      1  O   UNL     1     -35.486   9.515 -12.958  0.00  0.00    -0.340 OA
ENDROOT
BRANCH   1   2
ATOM      2  C   UNL     1     -34.746  10.627 -12.471  0.00  0.00    +0.283 C 
ATOM      3  C   UNL     1     -35.539  11.943 -12.648  0.00  0.00    +0.201 C 
ATOM      4  C   UNL     1     -35.689  12.277 -14.142  0.00  0.00    +0.179 C 
ATOM      5  C   UNL     1     -34.320  12.232 -14.838  0.00  0.00    +0.185 C 
ATOM      6  C   UNL     1     -33.627  10.890 -14.523  0.00  0.00    +0.260 C 
ATOM      7  O   UNL     1     -33.487  10.703 -13.123  0.00  0.00    -0.332 OA
BRANCH   3   8
ATOM      8  O   UNL     1     -34.873  12.994 -11.995  0.00  0.00    -0.384 OA
ATOM      9  H   UNL     1     -34.520  12.625 -11.143  0.00  0.00    +0.210 HD
ENDBRANCH   3   8
BRANCH   4  10
ATOM     10  O   UNL     1     -36.256  13.552 -14.300  0.00  0.00    -0.386 OA
ATOM     11  H   UNL     1     -35.659  14.191 -13.828  0.00  0.00    +0.210 HD
ENDBRANCH   4  10
BRANCH   5  12
ATOM     12  O   UNL     1     -34.488  12.358 -16.228  0.00  0.00    -0.386 OA
ATOM     13  H   UNL     1     -34.344  13.315 -16.450  0.00  0.00    +0.210 HD
ENDBRANCH   5  12
BRANCH   6  14
ATOM     14  C   UNL     1     -32.262  10.860 -15.147  0.00  0.00    +0.337 C 
ATOM     15  O   UNL     1     -32.139  10.800 -16.401  0.00  0.00    -0.248 OA
BRANCH  14  16
ATOM     16  O   UNL     1     -31.130  10.864 -14.338  0.00  0.00    -0.479 OA
ATOM     17  H   UNL     1     -30.601  10.014 -14.181  0.00  0.00    +0.295 HD
ENDBRANCH  14  16
ENDBRANCH   6  14
ENDBRANCH   1   2
BRANCH   1  21
ATOM     18  C   UNL     1     -35.746   7.150  -9.592  0.00  0.00    +0.280 C 
ATOM     19  C   UNL     1     -34.361   7.101 -10.289  0.00  0.00    +0.201 C 
ATOM     20  C   UNL     1     -34.246   8.195 -11.373  0.00  0.00    +0.180 C 
ATOM     21  C   UNL     1     -35.625   8.491 -11.984  0.00  0.00    +0.192 C 
ATOM     22  C   UNL     1     -36.580   8.968 -10.846  0.00  0.00    +0.260 C 
ATOM     23  O   UNL     1     -36.251   8.474  -9.550  0.00  0.00    -0.332 OA
BRANCH  18  24
ATOM     24  O   UNL     1     -35.647   6.643  -8.287  0.00  0.00    -0.365 OA
ATOM     25  H   UNL     1     -34.760   6.915  -7.932  0.00  0.00    +0.213 HD
ENDBRANCH  18  24
BRANCH  19  26
ATOM     26  O   UNL     1     -34.171   5.831 -10.862  0.00  0.00    -0.384 OA
ATOM     27  H   UNL     1     -35.015   5.326 -10.725  0.00  0.00    +0.210 HD
ENDBRANCH  19  26
BRANCH  20  28
ATOM     28  O   UNL     1     -33.342   7.793 -12.372  0.00  0.00    -0.386 OA
ATOM     29  H   UNL     1     -33.779   7.967 -13.246  0.00  0.00    +0.210 HD
ENDBRANCH  20  28
BRANCH  22  30
ATOM     30  C   UNL     1     -38.026   8.685 -11.156  0.00  0.00    +0.337 C 
ATOM     31  O   UNL     1     -38.890   8.762 -10.241  0.00  0.00    -0.248 OA
BRANCH  30  32
ATOM     32  O   UNL     1     -38.414   8.315 -12.440  0.00  0.00    -0.479 OA
ATOM     33  H   UNL     1     -37.757   7.881 -13.076  0.00  0.00    +0.295 HD
ENDBRANCH  30  32
ENDBRANCH  22  30
ENDBRANCH   1  21
TORSDOF 12
ENDMDL
