MODEL 15
REMARK VINA RESULT:    -6.229      4.233      6.583
REMARK INTER + INTRA:         -10.431
REMARK INTER:                  -9.744
REMARK INTRA:                  -0.687
REMARK UNBOUND:                -1.289
REMARK  Name = BEM
REMARK  12 active torsions:
REMARK  status: ('A' for Active; 'I' for Inactive)
REMARK    1  A    between atoms: C_1  and  O_20
REMARK    2  A    between atoms: C_2  and  O_3
REMARK    3  A    between atoms: C_4  and  O_5
REMARK    4  A    between atoms: C_6  and  O_7
REMARK    5  A    between atoms: C_8  and  C_10
REMARK    6  A    between atoms: C_10  and  O_11
REMARK    7  A    between atoms: C_13  and  O_14
REMARK    8  A    between atoms: C_15  and  O_16
REMARK    9  A    between atoms: C_17  and  O_18
REMARK   10  A    between atoms: C_19  and  O_20
REMARK   11  A    between atoms: C_21  and  C_23
REMARK   12  A    between atoms: C_23  and  O_25
REMARK                            x       y       z     vdW  Elec       q    Type
REMARK                         _______ _______ _______ _____ _____    ______ ____
ROOT
ATOM      1  O   UNL     1     -34.883  10.116 -11.942  0.00  0.00    -0.340 OA
ENDROOT
BRANCH   1   2
ATOM      2  C   UNL     1     -34.932  10.325 -13.347  0.00  0.00    +0.283 C 
ATOM      3  C   UNL     1     -33.538  10.132 -13.987  0.00  0.00    +0.201 C 
ATOM      4  C   UNL     1     -32.580  11.243 -13.524  0.00  0.00    +0.179 C 
ATOM      5  C   UNL     1     -33.221  12.623 -13.740  0.00  0.00    +0.185 C 
ATOM      6  C   UNL     1     -34.624  12.644 -13.099  0.00  0.00    +0.260 C 
ATOM      7  O   UNL     1     -35.446  11.617 -13.633  0.00  0.00    -0.332 OA
BRANCH   3   8
ATOM      8  O   UNL     1     -33.648  10.159 -15.388  0.00  0.00    -0.384 OA
ATOM      9  H   UNL     1     -33.287  11.033 -15.688  0.00  0.00    +0.210 HD
ENDBRANCH   3   8
BRANCH   4  10
ATOM     10  O   UNL     1     -31.370  11.168 -14.234  0.00  0.00    -0.386 OA
ATOM     11  H   UNL     1     -30.685  10.837 -13.596  0.00  0.00    +0.210 HD
ENDBRANCH   4  10
BRANCH   5  12
ATOM     12  O   UNL     1     -32.421  13.616 -13.150  0.00  0.00    -0.386 OA
ATOM     13  H   UNL     1     -31.903  14.042 -13.882  0.00  0.00    +0.210 HD
ENDBRANCH   5  12
BRANCH   6  14
ATOM     14  C   UNL     1     -35.284  13.967 -13.358  0.00  0.00    +0.337 C 
ATOM     15  O   UNL     1     -34.899  14.692 -14.315  0.00  0.00    -0.248 OA
BRANCH  14  16
ATOM     16  O   UNL     1     -36.301  14.409 -12.517  0.00  0.00    -0.479 OA
ATOM     17  H   UNL     1     -37.271  14.367 -12.809  0.00  0.00    +0.295 HD
ENDBRANCH  14  16
ENDBRANCH   6  14
ENDBRANCH   1   2
BRANCH   1  21
ATOM     18  C   UNL     1     -35.387   6.424 -10.181  0.00  0.00    +0.280 C 
ATOM     19  C   UNL     1     -33.905   6.867 -10.299  0.00  0.00    +0.201 C 
ATOM     20  C   UNL     1     -33.800   8.350 -10.718  0.00  0.00    +0.180 C 
ATOM     21  C   UNL     1     -34.999   8.744 -11.595  0.00  0.00    +0.192 C 
ATOM     22  C   UNL     1     -36.309   8.514 -10.779  0.00  0.00    +0.260 C 
ATOM     23  O   UNL     1     -36.213   7.503  -9.778  0.00  0.00    -0.332 OA
BRANCH  18  24
ATOM     24  O   UNL     1     -35.504   5.372  -9.259  0.00  0.00    -0.365 OA
ATOM     25  H   UNL     1     -36.255   5.598  -8.650  0.00  0.00    +0.213 HD
ENDBRANCH  18  24
BRANCH  19  26
ATOM     26  O   UNL     1     -33.247   6.052 -11.238  0.00  0.00    -0.384 OA
ATOM     27  H   UNL     1     -33.780   6.091 -12.074  0.00  0.00    +0.210 HD
ENDBRANCH  19  26
BRANCH  20  28
ATOM     28  O   UNL     1     -32.594   8.574 -11.404  0.00  0.00    -0.386 OA
ATOM     29  H   UNL     1     -32.823   9.044 -12.249  0.00  0.00    +0.210 HD
ENDBRANCH  20  28
BRANCH  22  30
ATOM     30  C   UNL     1     -37.497   8.253 -11.665  0.00  0.00    +0.337 C 
ATOM     31  O   UNL     1     -37.414   8.464 -12.906  0.00  0.00    -0.248 OA
BRANCH  30  32
ATOM     32  O   UNL     1     -38.698   7.803 -11.123  0.00  0.00    -0.479 OA
ATOM     33  H   UNL     1     -39.297   8.428 -10.598  0.00  0.00    +0.295 HD
ENDBRANCH  30  32
ENDBRANCH  22  30
ENDBRANCH   1  21
TORSDOF 12
ENDMDL
