MODEL 9
REMARK VINA RESULT:    -6.498      1.453      6.272
REMARK INTER + INTRA:         -10.825
REMARK INTER:                  -9.945
REMARK INTRA:                  -0.881
REMARK UNBOUND:                -1.289
REMARK  Name = BEM
REMARK  12 active torsions:
REMARK  status: ('A' for Active; 'I' for Inactive)
REMARK    1  A    between atoms: C_1  and  O_20
REMARK    2  A    between atoms: C_2  and  O_3
REMARK    3  A    between atoms: C_4  and  O_5
REMARK    4  A    between atoms: C_6  and  O_7
REMARK    5  A    between atoms: C_8  and  C_10
REMARK    6  A    between atoms: C_10  and  O_11
REMARK    7  A    between atoms: C_13  and  O_14
REMARK    8  A    between atoms: C_15  and  O_16
REMARK    9  A    between atoms: C_17  and  O_18
REMARK   10  A    between atoms: C_19  and  O_20
REMARK   11  A    between atoms: C_21  and  C_23
REMARK   12  A    between atoms: C_23  and  O_25
REMARK                            x       y       z     vdW  Elec       q    Type
REMARK                         _______ _______ _______ _____ _____    ______ ____
ROOT
ATOM      1  O   UNL     1     -36.103  11.231 -15.605  0.00  0.00    -0.340 OA
ENDROOT
BRANCH   1   2
ATOM      2  C   UNL     1     -36.293  11.914 -16.836  0.00  0.00    +0.283 C 
ATOM      3  C   UNL     1     -37.708  12.533 -16.916  0.00  0.00    +0.201 C 
ATOM      4  C   UNL     1     -38.772  11.423 -16.989  0.00  0.00    +0.179 C 
ATOM      5  C   UNL     1     -38.423  10.424 -18.103  0.00  0.00    +0.185 C 
ATOM      6  C   UNL     1     -36.968   9.941 -17.925  0.00  0.00    +0.260 C 
ATOM      7  O   UNL     1     -36.063  11.035 -17.927  0.00  0.00    -0.332 OA
BRANCH   3   8
ATOM      8  O   UNL     1     -37.807  13.354 -18.052  0.00  0.00    -0.384 OA
ATOM      9  H   UNL     1     -38.188  14.220 -17.749  0.00  0.00    +0.210 HD
ENDBRANCH   3   8
BRANCH   4  10
ATOM     10  O   UNL     1     -40.038  11.979 -17.233  0.00  0.00    -0.386 OA
ATOM     11  H   UNL     1     -40.377  12.311 -16.361  0.00  0.00    +0.210 HD
ENDBRANCH   4  10
BRANCH   5  12
ATOM     12  O   UNL     1     -39.293   9.322 -18.043  0.00  0.00    -0.386 OA
ATOM     13  H   UNL     1     -39.968   9.525 -17.343  0.00  0.00    +0.210 HD
ENDBRANCH   5  12
BRANCH   6  14
ATOM     14  C   UNL     1     -36.597   9.012 -19.044  0.00  0.00    +0.337 C 
ATOM     15  O   UNL     1     -37.167   7.893 -19.154  0.00  0.00    -0.248 OA
BRANCH  14  16
ATOM     16  O   UNL     1     -35.596   9.373 -19.941  0.00  0.00    -0.479 OA
ATOM     17  H   UNL     1     -35.327   8.753 -20.695  0.00  0.00    +0.295 HD
ENDBRANCH  14  16
ENDBRANCH   6  14
ENDBRANCH   1   2
BRANCH   1  21
ATOM     18  C   UNL     1     -32.533  12.867 -14.352  0.00  0.00    +0.280 C 
ATOM     19  C   UNL     1     -32.377  11.520 -15.105  0.00  0.00    +0.201 C 
ATOM     20  C   UNL     1     -33.706  11.099 -15.770  0.00  0.00    +0.180 C 
ATOM     21  C   UNL     1     -34.901  11.616 -14.953  0.00  0.00    +0.192 C 
ATOM     22  C   UNL     1     -34.815  13.172 -14.878  0.00  0.00    +0.260 C 
ATOM     23  O   UNL     1     -33.494  13.697 -14.982  0.00  0.00    -0.332 OA
BRANCH  18  24
ATOM     24  O   UNL     1     -31.299  13.533 -14.295  0.00  0.00    -0.365 OA
ATOM     25  H   UNL     1     -31.270  14.163 -15.062  0.00  0.00    +0.213 HD
ENDBRANCH  18  24
BRANCH  19  26
ATOM     26  O   UNL     1     -31.951  10.527 -14.204  0.00  0.00    -0.384 OA
ATOM     27  H   UNL     1     -32.585   9.768 -14.294  0.00  0.00    +0.210 HD
ENDBRANCH  19  26
BRANCH  20  28
ATOM     28  O   UNL     1     -33.763   9.699 -15.892  0.00  0.00    -0.386 OA
ATOM     29  H   UNL     1     -33.160   9.323 -15.199  0.00  0.00    +0.210 HD
ENDBRANCH  20  28
BRANCH  22  30
ATOM     30  C   UNL     1     -35.496  13.724 -13.655  0.00  0.00    +0.337 C 
ATOM     31  O   UNL     1     -36.687  14.132 -13.730  0.00  0.00    -0.248 OA
BRANCH  30  32
ATOM     32  O   UNL     1     -34.815  13.812 -12.445  0.00  0.00    -0.479 OA
ATOM     33  H   UNL     1     -34.131  13.113 -12.182  0.00  0.00    +0.295 HD
ENDBRANCH  30  32
ENDBRANCH  22  30
ENDBRANCH   1  21
TORSDOF 12
ENDMDL
