MODEL 4
REMARK VINA RESULT:    -6.830      1.376      5.861
REMARK INTER + INTRA:         -11.312
REMARK INTER:                 -10.406
REMARK INTRA:                  -0.906
REMARK UNBOUND:                -1.289
REMARK  Name = BEM
REMARK  12 active torsions:
REMARK  status: ('A' for Active; 'I' for Inactive)
REMARK    1  A    between atoms: C_1  and  O_20
REMARK    2  A    between atoms: C_2  and  O_3
REMARK    3  A    between atoms: C_4  and  O_5
REMARK    4  A    between atoms: C_6  and  O_7
REMARK    5  A    between atoms: C_8  and  C_10
REMARK    6  A    between atoms: C_10  and  O_11
REMARK    7  A    between atoms: C_13  and  O_14
REMARK    8  A    between atoms: C_15  and  O_16
REMARK    9  A    between atoms: C_17  and  O_18
REMARK   10  A    between atoms: C_19  and  O_20
REMARK   11  A    between atoms: C_21  and  C_23
REMARK   12  A    between atoms: C_23  and  O_25
REMARK                            x       y       z     vdW  Elec       q    Type
REMARK                         _______ _______ _______ _____ _____    ______ ____
ROOT
ATOM      1  O   UNL     1     -35.384  12.420 -15.780  0.00  0.00    -0.340 OA
ENDROOT
BRANCH   1   2
ATOM      2  C   UNL     1     -35.948  12.781 -17.034  0.00  0.00    +0.283 C 
ATOM      3  C   UNL     1     -37.494  12.741 -16.981  0.00  0.00    +0.201 C 
ATOM      4  C   UNL     1     -37.984  11.293 -16.804  0.00  0.00    +0.179 C 
ATOM      5  C   UNL     1     -37.335  10.379 -17.855  0.00  0.00    +0.185 C 
ATOM      6  C   UNL     1     -35.804  10.572 -17.830  0.00  0.00    +0.260 C 
ATOM      7  O   UNL     1     -35.456  11.929 -18.057  0.00  0.00    -0.332 OA
BRANCH   3   8
ATOM      8  O   UNL     1     -38.026  13.277 -18.166  0.00  0.00    -0.384 OA
ATOM      9  H   UNL     1     -38.352  12.511 -18.706  0.00  0.00    +0.210 HD
ENDBRANCH   3   8
BRANCH   4  10
ATOM     10  O   UNL     1     -39.381  11.235 -16.927  0.00  0.00    -0.386 OA
ATOM     11  H   UNL     1     -39.744  11.111 -16.010  0.00  0.00    +0.210 HD
ENDBRANCH   4  10
BRANCH   5  12
ATOM     12  O   UNL     1     -37.644   9.038 -17.575  0.00  0.00    -0.386 OA
ATOM     13  H   UNL     1     -37.760   8.580 -18.448  0.00  0.00    +0.210 HD
ENDBRANCH   5  12
BRANCH   6  14
ATOM     14  C   UNL     1     -35.165   9.730 -18.896  0.00  0.00    +0.337 C 
ATOM     15  O   UNL     1     -35.845   9.326 -19.878  0.00  0.00    -0.248 OA
BRANCH  14  16
ATOM     16  O   UNL     1     -33.827   9.366 -18.781  0.00  0.00    -0.479 OA
ATOM     17  H   UNL     1     -33.226   9.806 -18.093  0.00  0.00    +0.295 HD
ENDBRANCH  14  16
ENDBRANCH   6  14
ENDBRANCH   1   2
BRANCH   1  21
ATOM     18  C   UNL     1     -32.008  14.212 -14.236  0.00  0.00    +0.280 C 
ATOM     19  C   UNL     1     -33.181  15.194 -14.489  0.00  0.00    +0.201 C 
ATOM     20  C   UNL     1     -34.485  14.432 -14.813  0.00  0.00    +0.180 C 
ATOM     21  C   UNL     1     -34.167  13.104 -15.519  0.00  0.00    +0.192 C 
ATOM     22  C   UNL     1     -33.268  12.244 -14.578  0.00  0.00    +0.260 C 
ATOM     23  O   UNL     1     -32.472  12.998 -13.668  0.00  0.00    -0.332 OA
BRANCH  18  24
ATOM     24  O   UNL     1     -31.062  14.800 -13.382  0.00  0.00    -0.365 OA
ATOM     25  H   UNL     1     -31.256  15.773 -13.355  0.00  0.00    +0.213 HD
ENDBRANCH  18  24
BRANCH  19  26
ATOM     26  O   UNL     1     -32.848  16.055 -15.551  0.00  0.00    -0.384 OA
ATOM     27  H   UNL     1     -33.067  15.572 -16.390  0.00  0.00    +0.210 HD
ENDBRANCH  19  26
BRANCH  20  28
ATOM     28  O   UNL     1     -35.324  15.226 -15.614  0.00  0.00    -0.386 OA
ATOM     29  H   UNL     1     -34.743  15.685 -16.276  0.00  0.00    +0.210 HD
ENDBRANCH  20  28
BRANCH  22  30
ATOM     30  C   UNL     1     -32.404  11.275 -15.340  0.00  0.00    +0.337 C 
ATOM     31  O   UNL     1     -32.644  11.041 -16.556  0.00  0.00    -0.248 OA
BRANCH  30  32
ATOM     32  O   UNL     1     -31.356  10.614 -14.707  0.00  0.00    -0.479 OA
ATOM     33  H   UNL     1     -31.046   9.704 -15.028  0.00  0.00    +0.295 HD
ENDBRANCH  30  32
ENDBRANCH  22  30
ENDBRANCH   1  21
TORSDOF 12
ENDMDL
