REMARK  Name = teste_hibrido_g3\Hibrido_G3_Top2.pdb
REMARK  10 active torsions:
REMARK  status: ('A' for Active; 'I' for Inactive)
REMARK    1  A    between atoms: C1_1  and  C2_2
REMARK    2  A    between atoms: C2_2  and  C3_4
REMARK    3  A    between atoms: C7_9  and  C8_10
REMARK    4  A    between atoms: C11_13  and  C12_14
REMARK    5  A    between atoms: C13_15  and  C14_16
REMARK    6  A    between atoms: C14_16  and  C15_18
REMARK    7  A    between atoms: C15_18  and  C16_19
REMARK    8  A    between atoms: C15_18  and  C17_20
REMARK    9  A    between atoms: C17_20  and  C18_21
REMARK   10  A    between atoms: C17_20  and  C19_22
REMARK                            x       y       z     vdW  Elec       q    Type
REMARK                         _______ _______ _______ _____ _____    ______ ____
ROOT
ATOM      1  C8  UNL     1      -1.420  -0.874   0.818  0.00  0.00    +0.000 C 
ATOM      2  C9  UNL     1      -1.512  -2.384   1.135  0.00  0.00    +0.000 C 
ATOM      3  C10 UNL     1      -0.493  -2.630   2.253  0.00  0.00    +0.000 C 
ATOM      4  C11 UNL     1       0.206  -1.286   2.499  0.00  0.00    +0.000 C 
ATOM      5  C12 UNL     1       1.617  -1.445   3.038  0.00  0.00    +0.000 C 
ATOM      6  C13 UNL     1       0.041  -0.510   1.178  0.00  0.00    +0.000 C 
ENDROOT
BRANCH   1  12
ATOM      7  C3  UNL     1      -2.388   0.970  -0.717  0.00  0.00    +0.000 C 
ATOM      8  C4  UNL     1      -2.913   1.336  -1.967  0.00  0.00    +0.000 C 
ATOM      9  C5  UNL     1      -2.961   0.395  -2.975  0.00  0.00    +0.000 C 
ATOM     10  N1  UNL     1      -2.524  -0.863  -2.826  0.00  0.00    +0.000 NA
ATOM     11  C6  UNL     1      -2.033  -1.206  -1.613  0.00  0.00    +0.000 C 
ATOM     12  C7  UNL     1      -1.951  -0.359  -0.505  0.00  0.00    +0.000 C 
BRANCH   7  14
ATOM     13  C1  UNL     1      -2.331   3.488  -0.086  0.00  0.00    +0.000 C 
ATOM     14  C2  UNL     1      -2.312   2.039   0.342  0.00  0.00    +0.000 C 
ATOM     15  O1  UNL     1      -2.231   1.763   1.535  0.00  0.00    +0.000 OA
ENDBRANCH   7  14
ENDBRANCH   1  12
BRANCH   6  16
ATOM     16  C14 UNL     1       1.065  -0.920   0.108  0.00  0.00    +0.000 C 
ATOM     17  O2  UNL     1       0.887  -1.905  -0.612  0.00  0.00    +0.000 OA
BRANCH  16  18
ATOM     18  C15 UNL     1       2.346  -0.081  -0.013  0.00  0.00    +0.000 C 
ATOM     19  C16 UNL     1       3.543  -1.013  -0.244  0.00  0.00    +0.000 C 
BRANCH  18  20
ATOM     20  C17 UNL     1       2.280   1.014  -1.107  0.00  0.00    +0.000 C 
ATOM     21  C18 UNL     1       1.845   0.500  -2.482  0.00  0.00    +0.000 C 
ATOM     22  C19 UNL     1       1.394   2.187  -0.690  0.00  0.00    +0.000 C 
ENDBRANCH  18  20
ENDBRANCH  16  18
ENDBRANCH   6  16
TORSDOF 5
