MODEL 1
REMARK VINA RESULT:    -9.257      0.000      0.000
REMARK INTER + INTRA:         -14.073
REMARK INTER:                 -12.775
REMARK INTRA:                  -1.298
REMARK UNBOUND:                -1.298
REMARK  Name = teste_hibrido_g3\Hibrido_G3_Top10.pdb
REMARK  11 active torsions:
REMARK  status: ('A' for Active; 'I' for Inactive)
REMARK    1  A    between atoms: C1_1  and  C2_2
REMARK    2  A    between atoms: C2_2  and  C3_3
REMARK    3  A    between atoms: C6_6  and  C7_7
REMARK    4  A    between atoms: C9_10  and  C10_11
REMARK    5  A    between atoms: C12_13  and  C13_14
REMARK    6  A    between atoms: N2_15  and  O1_16
REMARK    7  A    between atoms: C14_17  and  C15_18
REMARK    8  A    between atoms: C15_18  and  C16_20
REMARK    9  A    between atoms: C16_20  and  C17_21
REMARK   10  A    between atoms: C17_21  and  C18_22
REMARK   11  A    between atoms: C17_21  and  C19_23
REMARK                            x       y       z     vdW  Elec       q    Type
REMARK                         _______ _______ _______ _____ _____    ______ ____
ROOT
ATOM      1  C3  UNL     1       3.556  66.223  67.843  0.00  0.00    +0.000 C 
ATOM      2  C4  UNL     1       3.175  67.659  68.228  0.00  0.00    +0.000 C 
ATOM      3  C5  UNL     1       3.430  68.510  66.980  0.00  0.00    +0.000 C 
ATOM      4  C6  UNL     1       3.462  67.529  65.793  0.00  0.00    +0.000 C 
ATOM      5  C14 UNL     1       3.071  66.158  66.379  0.00  0.00    +0.000 C 
ENDROOT
BRANCH   4   6
ATOM      6  C7  UNL     1       2.677  67.936  64.563  0.00  0.00    +0.000 C 
ATOM      7  C8  UNL     1       1.291  67.758  64.607  0.00  0.00    +0.000 C 
ATOM      8  N1  UNL     1       0.430  68.065  63.610  0.00  0.00    +0.000 NA
ATOM      9  C9  UNL     1       0.942  68.596  62.483  0.00  0.00    +0.000 C 
ATOM     10  C10 UNL     1      -0.014  68.937  61.381  0.00  0.00    +0.000 C 
ATOM     11  C11 UNL     1       2.300  68.832  62.334  0.00  0.00    +0.000 C 
ATOM     12  C12 UNL     1       3.175  68.505  63.379  0.00  0.00    +0.000 C 
BRANCH  12  13
ATOM     13  C13 UNL     1       4.609  68.805  63.170  0.00  0.00    +0.000 C 
ATOM     14  N2  UNL     1       5.140  68.884  61.989  0.00  0.00    +0.000 NA
BRANCH  14  15
ATOM     15  O1  UNL     1       6.500  69.188  62.122  0.00  0.00    +0.000 OA
ATOM     16  H   UNL     1       7.036  69.279  61.358  0.00  0.00    +0.000 HD
ENDBRANCH  14  15
ENDBRANCH  12  13
ENDBRANCH   4   6
BRANCH   1  18
ATOM     17  C1  UNL     1       5.341  64.877  69.087  0.00  0.00    +0.000 C 
ATOM     18  C2  UNL     1       5.060  65.935  68.027  0.00  0.00    +0.000 C 
ENDBRANCH   1  18
BRANCH   5  19
ATOM     19  C15 UNL     1       3.639  64.986  65.587  0.00  0.00    +0.000 C 
ATOM     20  O2  UNL     1       3.323  63.820  65.828  0.00  0.00    +0.000 OA
BRANCH  19  21
ATOM     21  C16 UNL     1       4.614  65.310  64.471  0.00  0.00    +0.000 C 
BRANCH  21  22
ATOM     22  C17 UNL     1       4.253  64.602  63.159  0.00  0.00    +0.000 C 
ATOM     23  C18 UNL     1       5.037  63.296  63.038  0.00  0.00    +0.000 C 
ATOM     24  C19 UNL     1       4.528  65.491  61.943  0.00  0.00    +0.000 C 
ENDBRANCH  21  22
ENDBRANCH  19  21
ENDBRANCH   5  19
TORSDOF 7
ENDMDL
MODEL 2
REMARK VINA RESULT:    -8.871      1.767      2.896
REMARK INTER + INTRA:         -13.540
REMARK INTER:                 -12.573
REMARK INTRA:                  -0.967
REMARK UNBOUND:                -1.298
REMARK  Name = teste_hibrido_g3\Hibrido_G3_Top10.pdb
REMARK  11 active torsions:
REMARK  status: ('A' for Active; 'I' for Inactive)
REMARK    1  A    between atoms: C1_1  and  C2_2
REMARK    2  A    between atoms: C2_2  and  C3_3
REMARK    3  A    between atoms: C6_6  and  C7_7
REMARK    4  A    between atoms: C9_10  and  C10_11
REMARK    5  A    between atoms: C12_13  and  C13_14
REMARK    6  A    between atoms: N2_15  and  O1_16
REMARK    7  A    between atoms: C14_17  and  C15_18
REMARK    8  A    between atoms: C15_18  and  C16_20
REMARK    9  A    between atoms: C16_20  and  C17_21
REMARK   10  A    between atoms: C17_21  and  C18_22
REMARK   11  A    between atoms: C17_21  and  C19_23
REMARK                            x       y       z     vdW  Elec       q    Type
REMARK                         _______ _______ _______ _____ _____    ______ ____
ROOT
ATOM      1  C3  UNL     1       3.538  66.175  68.040  0.00  0.00    +0.000 C 
ATOM      2  C4  UNL     1       3.077  67.581  68.451  0.00  0.00    +0.000 C 
ATOM      3  C5  UNL     1       3.270  68.464  67.215  0.00  0.00    +0.000 C 
ATOM      4  C6  UNL     1       3.347  67.505  66.012  0.00  0.00    +0.000 C 
ATOM      5  C14 UNL     1       3.043  66.104  66.580  0.00  0.00    +0.000 C 
ENDROOT
BRANCH   4   6
ATOM      6  C7  UNL     1       2.527  67.884  64.796  0.00  0.00    +0.000 C 
ATOM      7  C8  UNL     1       3.206  68.502  63.741  0.00  0.00    +0.000 C 
ATOM      8  N1  UNL     1       2.644  68.905  62.579  0.00  0.00    +0.000 NA
ATOM      9  C9  UNL     1       1.325  68.689  62.413  0.00  0.00    +0.000 C 
ATOM     10  C10 UNL     1       0.706  69.135  61.124  0.00  0.00    +0.000 C 
ATOM     11  C11 UNL     1       0.555  68.070  63.385  0.00  0.00    +0.000 C 
ATOM     12  C12 UNL     1       1.157  67.660  64.583  0.00  0.00    +0.000 C 
BRANCH  12  13
ATOM     13  C13 UNL     1       0.288  66.982  65.570  0.00  0.00    +0.000 C 
ATOM     14  N2  UNL     1      -0.216  67.597  66.595  0.00  0.00    +0.000 NA
BRANCH  14  15
ATOM     15  O1  UNL     1      -0.994  66.695  67.329  0.00  0.00    +0.000 OA
ATOM     16  H   UNL     1      -1.929  66.733  67.279  0.00  0.00    +0.000 HD
ENDBRANCH  14  15
ENDBRANCH  12  13
ENDBRANCH   4   6
BRANCH   1  18
ATOM     17  C1  UNL     1       5.409  64.798  69.111  0.00  0.00    +0.000 C 
ATOM     18  C2  UNL     1       5.058  65.973  68.206  0.00  0.00    +0.000 C 
ENDBRANCH   1  18
BRANCH   5  19
ATOM     19  C15 UNL     1       3.670  64.980  65.764  0.00  0.00    +0.000 C 
ATOM     20  O2  UNL     1       3.391  63.797  65.960  0.00  0.00    +0.000 OA
BRANCH  19  21
ATOM     21  C16 UNL     1       4.657  65.375  64.681  0.00  0.00    +0.000 C 
BRANCH  21  22
ATOM     22  C17 UNL     1       4.278  64.801  63.311  0.00  0.00    +0.000 C 
ATOM     23  C18 UNL     1       4.993  63.469  63.087  0.00  0.00    +0.000 C 
ATOM     24  C19 UNL     1       4.617  65.773  62.177  0.00  0.00    +0.000 C 
ENDBRANCH  21  22
ENDBRANCH  19  21
ENDBRANCH   5  19
TORSDOF 7
ENDMDL
MODEL 3
REMARK VINA RESULT:    -8.870      2.620      4.579
REMARK INTER + INTRA:         -13.539
REMARK INTER:                 -12.803
REMARK INTRA:                  -0.737
REMARK UNBOUND:                -1.298
REMARK  Name = teste_hibrido_g3\Hibrido_G3_Top10.pdb
REMARK  11 active torsions:
REMARK  status: ('A' for Active; 'I' for Inactive)
REMARK    1  A    between atoms: C1_1  and  C2_2
REMARK    2  A    between atoms: C2_2  and  C3_3
REMARK    3  A    between atoms: C6_6  and  C7_7
REMARK    4  A    between atoms: C9_10  and  C10_11
REMARK    5  A    between atoms: C12_13  and  C13_14
REMARK    6  A    between atoms: N2_15  and  O1_16
REMARK    7  A    between atoms: C14_17  and  C15_18
REMARK    8  A    between atoms: C15_18  and  C16_20
REMARK    9  A    between atoms: C16_20  and  C17_21
REMARK   10  A    between atoms: C17_21  and  C18_22
REMARK   11  A    between atoms: C17_21  and  C19_23
REMARK                            x       y       z     vdW  Elec       q    Type
REMARK                         _______ _______ _______ _____ _____    ______ ____
ROOT
ATOM      1  C3  UNL     1       3.252  66.803  68.903  0.00  0.00    +0.000 C 
ATOM      2  C4  UNL     1       4.513  65.945  68.723  0.00  0.00    +0.000 C 
ATOM      3  C5  UNL     1       4.545  65.552  67.243  0.00  0.00    +0.000 C 
ATOM      4  C6  UNL     1       3.637  66.561  66.514  0.00  0.00    +0.000 C 
ATOM      5  C14 UNL     1       3.229  67.597  67.580  0.00  0.00    +0.000 C 
ENDROOT
BRANCH   4   6
ATOM      6  C7  UNL     1       4.184  67.156  65.233  0.00  0.00    +0.000 C 
ATOM      7  C8  UNL     1       4.458  68.527  65.237  0.00  0.00    +0.000 C 
ATOM      8  N1  UNL     1       4.952  69.229  64.192  0.00  0.00    +0.000 NA
ATOM      9  C9  UNL     1       5.213  68.558  63.054  0.00  0.00    +0.000 C 
ATOM     10  C10 UNL     1       5.762  69.338  61.899  0.00  0.00    +0.000 C 
ATOM     11  C11 UNL     1       4.995  67.193  62.941  0.00  0.00    +0.000 C 
ATOM     12  C12 UNL     1       4.482  66.485  64.036  0.00  0.00    +0.000 C 
BRANCH  12  13
ATOM     13  C13 UNL     1       4.297  65.027  63.861  0.00  0.00    +0.000 C 
ATOM     14  N2  UNL     1       4.624  64.408  62.769  0.00  0.00    +0.000 NA
BRANCH  14  15
ATOM     15  O1  UNL     1       4.337  63.046  62.916  0.00  0.00    +0.000 OA
ATOM     16  H   UNL     1       3.732  62.629  62.333  0.00  0.00    +0.000 HD
ENDBRANCH  14  15
ENDBRANCH  12  13
ENDBRANCH   4   6
BRANCH   1  18
ATOM     17  C1  UNL     1       2.295  64.585  69.744  0.00  0.00    +0.000 C 
ATOM     18  C2  UNL     1       1.988  65.959  69.161  0.00  0.00    +0.000 C 
ENDBRANCH   1  18
BRANCH   5  19
ATOM     19  C15 UNL     1       1.894  68.269  67.281  0.00  0.00    +0.000 C 
ATOM     20  O2  UNL     1       1.675  69.445  67.572  0.00  0.00    +0.000 OA
BRANCH  19  21
ATOM     21  C16 UNL     1       0.833  67.430  66.594  0.00  0.00    +0.000 C 
BRANCH  21  22
ATOM     22  C17 UNL     1      -0.588  67.897  66.933  0.00  0.00    +0.000 C 
ATOM     23  C18 UNL     1      -1.408  66.725  67.474  0.00  0.00    +0.000 C 
ATOM     24  C19 UNL     1      -1.288  68.506  65.715  0.00  0.00    +0.000 C 
ENDBRANCH  21  22
ENDBRANCH  19  21
ENDBRANCH   5  19
TORSDOF 7
ENDMDL
MODEL 4
REMARK VINA RESULT:    -8.768      2.020      3.612
REMARK INTER + INTRA:         -13.398
REMARK INTER:                 -13.279
REMARK INTRA:                  -0.119
REMARK UNBOUND:                -1.298
REMARK  Name = teste_hibrido_g3\Hibrido_G3_Top10.pdb
REMARK  11 active torsions:
REMARK  status: ('A' for Active; 'I' for Inactive)
REMARK    1  A    between atoms: C1_1  and  C2_2
REMARK    2  A    between atoms: C2_2  and  C3_3
REMARK    3  A    between atoms: C6_6  and  C7_7
REMARK    4  A    between atoms: C9_10  and  C10_11
REMARK    5  A    between atoms: C12_13  and  C13_14
REMARK    6  A    between atoms: N2_15  and  O1_16
REMARK    7  A    between atoms: C14_17  and  C15_18
REMARK    8  A    between atoms: C15_18  and  C16_20
REMARK    9  A    between atoms: C16_20  and  C17_21
REMARK   10  A    between atoms: C17_21  and  C18_22
REMARK   11  A    between atoms: C17_21  and  C19_23
REMARK                            x       y       z     vdW  Elec       q    Type
REMARK                         _______ _______ _______ _____ _____    ______ ____
ROOT
ATOM      1  C3  UNL     1       4.669  67.296  66.504  0.00  0.00    +0.000 C 
ATOM      2  C4  UNL     1       5.492  66.727  65.338  0.00  0.00    +0.000 C 
ATOM      3  C5  UNL     1       4.475  66.308  64.273  0.00  0.00    +0.000 C 
ATOM      4  C6  UNL     1       3.177  67.072  64.596  0.00  0.00    +0.000 C 
ATOM      5  C14 UNL     1       3.536  68.025  65.754  0.00  0.00    +0.000 C 
ENDROOT
BRANCH   4   6
ATOM      6  C7  UNL     1       2.476  67.734  63.428  0.00  0.00    +0.000 C 
ATOM      7  C8  UNL     1       1.091  67.900  63.530  0.00  0.00    +0.000 C 
ATOM      8  N1  UNL     1       0.300  68.470  62.594  0.00  0.00    +0.000 NA
ATOM      9  C9  UNL     1       0.889  68.928  61.472  0.00  0.00    +0.000 C 
ATOM     10  C10 UNL     1       0.010  69.561  60.437  0.00  0.00    +0.000 C 
ATOM     11  C11 UNL     1       2.257  68.832  61.270  0.00  0.00    +0.000 C 
ATOM     12  C12 UNL     1       3.058  68.236  62.253  0.00  0.00    +0.000 C 
BRANCH  12  13
ATOM     13  C13 UNL     1       4.514  68.188  61.990  0.00  0.00    +0.000 C 
ATOM     14  N2  UNL     1       5.299  69.194  62.224  0.00  0.00    +0.000 NA
BRANCH  14  15
ATOM     15  O1  UNL     1       6.609  68.836  61.883  0.00  0.00    +0.000 OA
ATOM     16  H   UNL     1       7.089  68.241  62.426  0.00  0.00    +0.000 HD
ENDBRANCH  14  15
ENDBRANCH  12  13
ENDBRANCH   4   6
BRANCH   1  18
ATOM     17  C1  UNL     1       5.323  65.550  68.256  0.00  0.00    +0.000 C 
ATOM     18  C2  UNL     1       4.186  66.204  67.480  0.00  0.00    +0.000 C 
ENDBRANCH   1  18
BRANCH   5  19
ATOM     19  C15 UNL     1       2.339  68.381  66.628  0.00  0.00    +0.000 C 
ATOM     20  O2  UNL     1       2.290  69.428  67.274  0.00  0.00    +0.000 OA
BRANCH  19  21
ATOM     21  C16 UNL     1       1.190  67.391  66.668  0.00  0.00    +0.000 C 
BRANCH  21  22
ATOM     22  C17 UNL     1      -0.059  67.975  67.340  0.00  0.00    +0.000 C 
ATOM     23  C18 UNL     1      -0.900  66.851  67.944  0.00  0.00    +0.000 C 
ATOM     24  C19 UNL     1      -0.903  68.787  66.354  0.00  0.00    +0.000 C 
ENDBRANCH  21  22
ENDBRANCH  19  21
ENDBRANCH   5  19
TORSDOF 7
ENDMDL
MODEL 5
REMARK VINA RESULT:    -7.665      3.935      5.886
REMARK INTER + INTRA:         -11.876
REMARK INTER:                 -11.234
REMARK INTRA:                  -0.642
REMARK UNBOUND:                -1.298
REMARK  Name = teste_hibrido_g3\Hibrido_G3_Top10.pdb
REMARK  11 active torsions:
REMARK  status: ('A' for Active; 'I' for Inactive)
REMARK    1  A    between atoms: C1_1  and  C2_2
REMARK    2  A    between atoms: C2_2  and  C3_3
REMARK    3  A    between atoms: C6_6  and  C7_7
REMARK    4  A    between atoms: C9_10  and  C10_11
REMARK    5  A    between atoms: C12_13  and  C13_14
REMARK    6  A    between atoms: N2_15  and  O1_16
REMARK    7  A    between atoms: C14_17  and  C15_18
REMARK    8  A    between atoms: C15_18  and  C16_20
REMARK    9  A    between atoms: C16_20  and  C17_21
REMARK   10  A    between atoms: C17_21  and  C18_22
REMARK   11  A    between atoms: C17_21  and  C19_23
REMARK                            x       y       z     vdW  Elec       q    Type
REMARK                         _______ _______ _______ _____ _____    ______ ____
ROOT
ATOM      1  C3  UNL     1       1.469  63.198  70.071  0.00  0.00    +0.000 C 
ATOM      2  C4  UNL     1       0.458  64.311  69.756  0.00  0.00    +0.000 C 
ATOM      3  C5  UNL     1       1.291  65.559  69.449  0.00  0.00    +0.000 C 
ATOM      4  C6  UNL     1       2.703  65.055  69.099  0.00  0.00    +0.000 C 
ATOM      5  C14 UNL     1       2.598  63.517  69.069  0.00  0.00    +0.000 C 
ENDROOT
BRANCH   4   6
ATOM      6  C7  UNL     1       3.353  65.666  67.874  0.00  0.00    +0.000 C 
ATOM      7  C8  UNL     1       3.735  64.790  66.854  0.00  0.00    +0.000 C 
ATOM      8  N1  UNL     1       4.322  65.151  65.690  0.00  0.00    +0.000 NA
ATOM      9  C9  UNL     1       4.552  66.462  65.487  0.00  0.00    +0.000 C 
ATOM     10  C10 UNL     1       5.201  66.860  64.197  0.00  0.00    +0.000 C 
ATOM     11  C11 UNL     1       4.200  67.423  66.422  0.00  0.00    +0.000 C 
ATOM     12  C12 UNL     1       3.593  67.026  67.622  0.00  0.00    +0.000 C 
BRANCH  12  13
ATOM     13  C13 UNL     1       3.218  68.101  68.568  0.00  0.00    +0.000 C 
ATOM     14  N2  UNL     1       2.751  69.246  68.174  0.00  0.00    +0.000 NA
BRANCH  14  15
ATOM     15  O1  UNL     1       2.484  70.038  69.297  0.00  0.00    +0.000 OA
ATOM     16  H   UNL     1       1.610  70.330  69.467  0.00  0.00    +0.000 HD
ENDBRANCH  14  15
ENDBRANCH  12  13
ENDBRANCH   4   6
BRANCH   1  18
ATOM     17  C1  UNL     1       0.798  62.782  72.504  0.00  0.00    +0.000 C 
ATOM     18  C2  UNL     1       1.911  63.194  71.548  0.00  0.00    +0.000 C 
ENDBRANCH   1  18
BRANCH   5  19
ATOM     19  C15 UNL     1       3.919  62.821  69.378  0.00  0.00    +0.000 C 
ATOM     20  O2  UNL     1       4.869  63.419  69.885  0.00  0.00    +0.000 OA
BRANCH  19  21
ATOM     21  C16 UNL     1       4.022  61.345  69.043  0.00  0.00    +0.000 C 
BRANCH  21  22
ATOM     22  C17 UNL     1       3.785  60.453  70.268  0.00  0.00    +0.000 C 
ATOM     23  C18 UNL     1       5.061  60.369  71.107  0.00  0.00    +0.000 C 
ATOM     24  C19 UNL     1       3.334  59.047  69.864  0.00  0.00    +0.000 C 
ENDBRANCH  21  22
ENDBRANCH  19  21
ENDBRANCH   5  19
TORSDOF 7
ENDMDL
MODEL 6
REMARK VINA RESULT:    -7.184      7.385     10.984
REMARK INTER + INTRA:         -11.212
REMARK INTER:                  -9.839
REMARK INTRA:                  -1.373
REMARK UNBOUND:                -1.298
REMARK  Name = teste_hibrido_g3\Hibrido_G3_Top10.pdb
REMARK  11 active torsions:
REMARK  status: ('A' for Active; 'I' for Inactive)
REMARK    1  A    between atoms: C1_1  and  C2_2
REMARK    2  A    between atoms: C2_2  and  C3_3
REMARK    3  A    between atoms: C6_6  and  C7_7
REMARK    4  A    between atoms: C9_10  and  C10_11
REMARK    5  A    between atoms: C12_13  and  C13_14
REMARK    6  A    between atoms: N2_15  and  O1_16
REMARK    7  A    between atoms: C14_17  and  C15_18
REMARK    8  A    between atoms: C15_18  and  C16_20
REMARK    9  A    between atoms: C16_20  and  C17_21
REMARK   10  A    between atoms: C17_21  and  C18_22
REMARK   11  A    between atoms: C17_21  and  C19_23
REMARK                            x       y       z     vdW  Elec       q    Type
REMARK                         _______ _______ _______ _____ _____    ______ ____
ROOT
ATOM      1  C3  UNL     1       4.518  61.752  69.894  0.00  0.00    +0.000 C 
ATOM      2  C4  UNL     1       5.440  61.035  70.892  0.00  0.00    +0.000 C 
ATOM      3  C5  UNL     1       4.570  60.718  72.112  0.00  0.00    +0.000 C 
ATOM      4  C6  UNL     1       3.111  60.785  71.626  0.00  0.00    +0.000 C 
ATOM      5  C14 UNL     1       3.192  60.992  70.100  0.00  0.00    +0.000 C 
ENDROOT
BRANCH   4   6
ATOM      6  C7  UNL     1       2.203  59.653  72.061  0.00  0.00    +0.000 C 
ATOM      7  C8  UNL     1       2.204  58.499  71.272  0.00  0.00    +0.000 C 
ATOM      8  N1  UNL     1       1.465  57.390  71.505  0.00  0.00    +0.000 NA
ATOM      9  C9  UNL     1       0.668  57.387  72.591  0.00  0.00    +0.000 C 
ATOM     10  C10 UNL     1      -0.148  56.157  72.848  0.00  0.00    +0.000 C 
ATOM     11  C11 UNL     1       0.598  58.469  73.454  0.00  0.00    +0.000 C 
ATOM     12  C12 UNL     1       1.372  59.609  73.193  0.00  0.00    +0.000 C 
BRANCH  12  13
ATOM     13  C13 UNL     1       1.274  60.720  74.165  0.00  0.00    +0.000 C 
ATOM     14  N2  UNL     1       1.505  60.562  75.432  0.00  0.00    +0.000 NA
BRANCH  14  15
ATOM     15  O1  UNL     1       1.340  61.791  76.081  0.00  0.00    +0.000 OA
ATOM     16  H   UNL     1       0.517  62.239  76.034  0.00  0.00    +0.000 HD
ENDBRANCH  14  15
ENDBRANCH  12  13
ENDBRANCH   4   6
BRANCH   1  18
ATOM     17  C1  UNL     1       4.617  64.102  68.888  0.00  0.00    +0.000 C 
ATOM     18  C2  UNL     1       4.428  63.270  70.150  0.00  0.00    +0.000 C 
ENDBRANCH   1  18
BRANCH   5  19
ATOM     19  C15 UNL     1       1.971  61.703  69.528  0.00  0.00    +0.000 C 
ATOM     20  O2  UNL     1       1.870  61.965  68.329  0.00  0.00    +0.000 OA
BRANCH  19  21
ATOM     21  C16 UNL     1       0.866  62.075  70.498  0.00  0.00    +0.000 C 
BRANCH  21  22
ATOM     22  C17 UNL     1       1.020  63.502  71.037  0.00  0.00    +0.000 C 
ATOM     23  C18 UNL     1       0.195  63.670  72.313  0.00  0.00    +0.000 C 
ATOM     24  C19 UNL     1       0.597  64.547  70.001  0.00  0.00    +0.000 C 
ENDBRANCH  21  22
ENDBRANCH  19  21
ENDBRANCH   5  19
TORSDOF 7
ENDMDL
MODEL 7
REMARK VINA RESULT:    -6.799     19.203     21.580
REMARK INTER + INTRA:         -10.681
REMARK INTER:                  -9.379
REMARK INTRA:                  -1.302
REMARK UNBOUND:                -1.298
REMARK  Name = teste_hibrido_g3\Hibrido_G3_Top10.pdb
REMARK  11 active torsions:
REMARK  status: ('A' for Active; 'I' for Inactive)
REMARK    1  A    between atoms: C1_1  and  C2_2
REMARK    2  A    between atoms: C2_2  and  C3_3
REMARK    3  A    between atoms: C6_6  and  C7_7
REMARK    4  A    between atoms: C9_10  and  C10_11
REMARK    5  A    between atoms: C12_13  and  C13_14
REMARK    6  A    between atoms: N2_15  and  O1_16
REMARK    7  A    between atoms: C14_17  and  C15_18
REMARK    8  A    between atoms: C15_18  and  C16_20
REMARK    9  A    between atoms: C16_20  and  C17_21
REMARK   10  A    between atoms: C17_21  and  C18_22
REMARK   11  A    between atoms: C17_21  and  C19_23
REMARK                            x       y       z     vdW  Elec       q    Type
REMARK                         _______ _______ _______ _____ _____    ______ ____
ROOT
ATOM      1  C3  UNL     1      14.488  51.560  60.785  0.00  0.00    +0.000 C 
ATOM      2  C4  UNL     1      14.017  52.767  59.961  0.00  0.00    +0.000 C 
ATOM      3  C5  UNL     1      14.345  52.434  58.503  0.00  0.00    +0.000 C 
ATOM      4  C6  UNL     1      14.518  50.905  58.443  0.00  0.00    +0.000 C 
ATOM      5  C14 UNL     1      14.135  50.389  59.844  0.00  0.00    +0.000 C 
ENDROOT
BRANCH   4   6
ATOM      6  C7  UNL     1      13.827  50.193  57.298  0.00  0.00    +0.000 C 
ATOM      7  C8  UNL     1      12.445  50.010  57.406  0.00  0.00    +0.000 C 
ATOM      8  N1  UNL     1      11.661  49.402  56.487  0.00  0.00    +0.000 NA
ATOM      9  C9  UNL     1      12.252  48.942  55.367  0.00  0.00    +0.000 C 
ATOM     10  C10 UNL     1      11.381  48.272  54.349  0.00  0.00    +0.000 C 
ATOM     11  C11 UNL     1      13.613  49.083  55.145  0.00  0.00    +0.000 C 
ATOM     12  C12 UNL     1      14.407  49.715  56.112  0.00  0.00    +0.000 C 
BRANCH  12  13
ATOM     13  C13 UNL     1      15.848  49.857  55.804  0.00  0.00    +0.000 C 
ATOM     14  N2  UNL     1      16.739  49.015  56.229  0.00  0.00    +0.000 NA
BRANCH  14  15
ATOM     15  O1  UNL     1      17.998  49.415  55.767  0.00  0.00    +0.000 OA
ATOM     16  H   UNL     1      18.114  50.272  55.403  0.00  0.00    +0.000 HD
ENDBRANCH  14  15
ENDBRANCH  12  13
ENDBRANCH   4   6
BRANCH   1  18
ATOM     17  C1  UNL     1      16.508  53.072  61.206  0.00  0.00    +0.000 C 
ATOM     18  C2  UNL     1      15.981  51.642  61.164  0.00  0.00    +0.000 C 
ENDBRANCH   1  18
BRANCH   5  19
ATOM     19  C15 UNL     1      14.816  49.074  60.204  0.00  0.00    +0.000 C 
ATOM     20  O2  UNL     1      15.780  48.642  59.571  0.00  0.00    +0.000 OA
BRANCH  19  21
ATOM     21  C16 UNL     1      14.263  48.308  61.391  0.00  0.00    +0.000 C 
BRANCH  21  22
ATOM     22  C17 UNL     1      15.339  47.479  62.102  0.00  0.00    +0.000 C 
ATOM     23  C18 UNL     1      14.751  46.146  62.565  0.00  0.00    +0.000 C 
ATOM     24  C19 UNL     1      15.935  48.230  63.296  0.00  0.00    +0.000 C 
ENDBRANCH  21  22
ENDBRANCH  19  21
ENDBRANCH   5  19
TORSDOF 7
ENDMDL
MODEL 8
REMARK VINA RESULT:    -6.619      7.712     11.146
REMARK INTER + INTRA:         -10.432
REMARK INTER:                  -9.446
REMARK INTRA:                  -0.986
REMARK UNBOUND:                -1.298
REMARK  Name = teste_hibrido_g3\Hibrido_G3_Top10.pdb
REMARK  11 active torsions:
REMARK  status: ('A' for Active; 'I' for Inactive)
REMARK    1  A    between atoms: C1_1  and  C2_2
REMARK    2  A    between atoms: C2_2  and  C3_3
REMARK    3  A    between atoms: C6_6  and  C7_7
REMARK    4  A    between atoms: C9_10  and  C10_11
REMARK    5  A    between atoms: C12_13  and  C13_14
REMARK    6  A    between atoms: N2_15  and  O1_16
REMARK    7  A    between atoms: C14_17  and  C15_18
REMARK    8  A    between atoms: C15_18  and  C16_20
REMARK    9  A    between atoms: C16_20  and  C17_21
REMARK   10  A    between atoms: C17_21  and  C18_22
REMARK   11  A    between atoms: C17_21  and  C19_23
REMARK                            x       y       z     vdW  Elec       q    Type
REMARK                         _______ _______ _______ _____ _____    ______ ____
ROOT
ATOM      1  C3  UNL     1       1.000  63.279  71.450  0.00  0.00    +0.000 C 
ATOM      2  C4  UNL     1      -0.078  63.177  72.539  0.00  0.00    +0.000 C 
ATOM      3  C5  UNL     1      -0.550  61.721  72.528  0.00  0.00    +0.000 C 
ATOM      4  C6  UNL     1       0.562  60.916  71.829  0.00  0.00    +0.000 C 
ATOM      5  C14 UNL     1       1.711  61.917  71.594  0.00  0.00    +0.000 C 
ENDROOT
BRANCH   4   6
ATOM      6  C7  UNL     1       0.979  59.622  72.498  0.00  0.00    +0.000 C 
ATOM      7  C8  UNL     1       0.867  58.452  71.742  0.00  0.00    +0.000 C 
ATOM      8  N1  UNL     1       1.194  57.210  72.167  0.00  0.00    +0.000 NA
ATOM      9  C9  UNL     1       1.677  57.085  73.418  0.00  0.00    +0.000 C 
ATOM     10  C10 UNL     1       2.040  55.709  73.886  0.00  0.00    +0.000 C 
ATOM     11  C11 UNL     1       1.847  58.179  74.252  0.00  0.00    +0.000 C 
ATOM     12  C12 UNL     1       1.501  59.457  73.791  0.00  0.00    +0.000 C 
BRANCH  12  13
ATOM     13  C13 UNL     1       1.731  60.587  74.719  0.00  0.00    +0.000 C 
ATOM     14  N2  UNL     1       0.950  60.833  75.725  0.00  0.00    +0.000 NA
BRANCH  14  15
ATOM     15  O1  UNL     1       1.434  61.953  76.412  0.00  0.00    +0.000 OA
ATOM     16  H   UNL     1       0.850  62.474  76.929  0.00  0.00    +0.000 HD
ENDBRANCH  14  15
ENDBRANCH  12  13
ENDBRANCH   4   6
BRANCH   1  18
ATOM     17  C1  UNL     1       0.298  65.026  69.718  0.00  0.00    +0.000 C 
ATOM     18  C2  UNL     1       0.409  63.543  70.050  0.00  0.00    +0.000 C 
ENDBRANCH   1  18
BRANCH   5  19
ATOM     19  C15 UNL     1       2.592  61.546  70.406  0.00  0.00    +0.000 C 
ATOM     20  O2  UNL     1       2.250  60.703  69.577  0.00  0.00    +0.000 OA
BRANCH  19  21
ATOM     21  C16 UNL     1       3.920  62.268  70.276  0.00  0.00    +0.000 C 
BRANCH  21  22
ATOM     22  C17 UNL     1       3.809  63.543  69.431  0.00  0.00    +0.000 C 
ATOM     23  C18 UNL     1       3.510  63.180  67.976  0.00  0.00    +0.000 C 
ATOM     24  C19 UNL     1       5.086  64.384  69.506  0.00  0.00    +0.000 C 
ENDBRANCH  21  22
ENDBRANCH  19  21
ENDBRANCH   5  19
TORSDOF 7
ENDMDL
MODEL 9
REMARK VINA RESULT:    -6.343      9.216     12.752
REMARK INTER + INTRA:         -10.051
REMARK INTER:                  -8.740
REMARK INTRA:                  -1.312
REMARK UNBOUND:                -1.298
REMARK  Name = teste_hibrido_g3\Hibrido_G3_Top10.pdb
REMARK  11 active torsions:
REMARK  status: ('A' for Active; 'I' for Inactive)
REMARK    1  A    between atoms: C1_1  and  C2_2
REMARK    2  A    between atoms: C2_2  and  C3_3
REMARK    3  A    between atoms: C6_6  and  C7_7
REMARK    4  A    between atoms: C9_10  and  C10_11
REMARK    5  A    between atoms: C12_13  and  C13_14
REMARK    6  A    between atoms: N2_15  and  O1_16
REMARK    7  A    between atoms: C14_17  and  C15_18
REMARK    8  A    between atoms: C15_18  and  C16_20
REMARK    9  A    between atoms: C16_20  and  C17_21
REMARK   10  A    between atoms: C17_21  and  C18_22
REMARK   11  A    between atoms: C17_21  and  C19_23
REMARK                            x       y       z     vdW  Elec       q    Type
REMARK                         _______ _______ _______ _____ _____    ______ ____
ROOT
ATOM      1  C3  UNL     1       2.238  60.607  70.305  0.00  0.00    +0.000 C 
ATOM      2  C4  UNL     1       2.874  59.374  69.648  0.00  0.00    +0.000 C 
ATOM      3  C5  UNL     1       3.212  58.416  70.793  0.00  0.00    +0.000 C 
ATOM      4  C6  UNL     1       2.345  58.854  71.988  0.00  0.00    +0.000 C 
ATOM      5  C14 UNL     1       1.421  59.962  71.443  0.00  0.00    +0.000 C 
ENDROOT
BRANCH   4   6
ATOM      6  C7  UNL     1       1.630  57.752  72.743  0.00  0.00    +0.000 C 
ATOM      7  C8  UNL     1       0.446  57.264  72.183  0.00  0.00    +0.000 C 
ATOM      8  N1  UNL     1      -0.323  56.284  72.709  0.00  0.00    +0.000 NA
ATOM      9  C9  UNL     1       0.085  55.720  73.863  0.00  0.00    +0.000 C 
ATOM     10  C10 UNL     1      -0.767  54.633  74.443  0.00  0.00    +0.000 C 
ATOM     11  C11 UNL     1       1.252  56.113  74.499  0.00  0.00    +0.000 C 
ATOM     12  C12 UNL     1       2.034  57.132  73.936  0.00  0.00    +0.000 C 
BRANCH  12  13
ATOM     13  C13 UNL     1       3.281  57.488  74.649  0.00  0.00    +0.000 C 
ATOM     14  N2  UNL     1       3.634  56.925  75.763  0.00  0.00    +0.000 NA
BRANCH  14  15
ATOM     15  O1  UNL     1       4.856  57.466  76.179  0.00  0.00    +0.000 OA
ATOM     16  H   UNL     1       5.458  56.942  76.670  0.00  0.00    +0.000 HD
ENDBRANCH  14  15
ENDBRANCH  12  13
ENDBRANCH   4   6
BRANCH   1  18
ATOM     17  C1  UNL     1       4.290  62.008  69.695  0.00  0.00    +0.000 C 
ATOM     18  C2  UNL     1       3.284  61.637  70.778  0.00  0.00    +0.000 C 
ENDBRANCH   1  18
BRANCH   5  19
ATOM     19  C15 UNL     1       0.966  60.943  72.517  0.00  0.00    +0.000 C 
ATOM     20  O2  UNL     1       1.407  60.904  73.666  0.00  0.00    +0.000 OA
BRANCH  19  21
ATOM     21  C16 UNL     1      -0.055  61.990  72.113  0.00  0.00    +0.000 C 
BRANCH  21  22
ATOM     22  C17 UNL     1       0.495  63.416  72.233  0.00  0.00    +0.000 C 
ATOM     23  C18 UNL     1      -0.104  64.105  73.460  0.00  0.00    +0.000 C 
ATOM     24  C19 UNL     1       0.204  64.242  70.977  0.00  0.00    +0.000 C 
ENDBRANCH  21  22
ENDBRANCH  19  21
ENDBRANCH   5  19
TORSDOF 7
ENDMDL
