REMARK  Name = teste_hibrido_g3\Hibrido_G3_Top5.pdb
REMARK  5 active torsions:
REMARK  status: ('A' for Active; 'I' for Inactive)
REMARK    1  A    between atoms: C1_1  and  C2_2
REMARK    2  A    between atoms: C2_2  and  C3_4
REMARK    3  A    between atoms: C7_9  and  C8_10
REMARK    4  A    between atoms: C11_13  and  C12_14
REMARK    5  A    between atoms: C13_15  and  C14_16
REMARK                            x       y       z     vdW  Elec       q    Type
REMARK                         _______ _______ _______ _____ _____    ______ ____
ROOT
ATOM      1  C8  UNL     1       0.331   0.022   0.546  0.00  0.00    +0.000 C 
ATOM      2  C9  UNL     1       0.452   1.251  -0.385  0.00  0.00    +0.000 C 
ATOM      3  C10 UNL     1       1.941   1.554  -0.561  0.00  0.00    +0.000 C 
ATOM      4  C11 UNL     1       2.696   0.581   0.344  0.00  0.00    +0.000 C 
ATOM      5  C12 UNL     1       3.031   1.216   1.694  0.00  0.00    +0.000 C 
ATOM      6  C13 UNL     1       1.742  -0.618   0.486  0.00  0.00    +0.000 C 
ENDROOT
BRANCH   1  12
ATOM      7  C3  UNL     1      -2.208  -0.326   0.221  0.00  0.00    +0.000 C 
ATOM      8  C4  UNL     1      -3.313  -1.166   0.040  0.00  0.00    +0.000 C 
ATOM      9  C5  UNL     1      -3.098  -2.526   0.027  0.00  0.00    +0.000 C 
ATOM     10  N1  UNL     1      -1.886  -3.076   0.204  0.00  0.00    +0.000 NA
ATOM     11  C6  UNL     1      -0.837  -2.238   0.390  0.00  0.00    +0.000 C 
ATOM     12  C7  UNL     1      -0.904  -0.845   0.359  0.00  0.00    +0.000 C 
BRANCH   7  14
ATOM     13  C1  UNL     1      -3.302   1.788  -0.722  0.00  0.00    +0.000 C 
ATOM     14  C2  UNL     1      -2.505   1.118   0.366  0.00  0.00    +0.000 C 
ATOM     15  O1  UNL     1      -2.126   1.718   1.367  0.00  0.00    +0.000 OA
ENDBRANCH   7  14
ENDBRANCH   1  12
BRANCH   6  16
ATOM     16  C14 UNL     1       2.036  -1.634  -0.618  0.00  0.00    +0.000 C 
ATOM     17  N2  UNL     1       1.663  -1.351  -1.892  0.00  0.00    +0.000 N 
ATOM     18  O2  UNL     1       2.642  -2.678  -0.386  0.00  0.00    +0.000 OA
ATOM     19  H   UNL     1       1.177  -0.518  -2.089  0.00  0.00    +0.000 HD
ATOM     20  H   UNL     1       1.878  -1.979  -2.619  0.00  0.00    +0.000 HD
ENDBRANCH   6  16
TORSDOF 3
