REMARK  Name = teste_hibrido_g3\Hibrido_G3_Top10.pdb
REMARK  11 active torsions:
REMARK  status: ('A' for Active; 'I' for Inactive)
REMARK    1  A    between atoms: C1_1  and  C2_2
REMARK    2  A    between atoms: C2_2  and  C3_3
REMARK    3  A    between atoms: C6_6  and  C7_7
REMARK    4  A    between atoms: C9_10  and  C10_11
REMARK    5  A    between atoms: C12_13  and  C13_14
REMARK    6  A    between atoms: N2_15  and  O1_16
REMARK    7  A    between atoms: C14_17  and  C15_18
REMARK    8  A    between atoms: C15_18  and  C16_20
REMARK    9  A    between atoms: C16_20  and  C17_21
REMARK   10  A    between atoms: C17_21  and  C18_22
REMARK   11  A    between atoms: C17_21  and  C19_23
REMARK                            x       y       z     vdW  Elec       q    Type
REMARK                         _______ _______ _______ _____ _____    ______ ____
ROOT
ATOM      1  C3  UNL     1      -0.926   2.293   0.781  0.00  0.00    +0.000 C 
ATOM      2  C4  UNL     1       0.390   3.032   0.497  0.00  0.00    +0.000 C 
ATOM      3  C5  UNL     1       1.506   2.105   0.987  0.00  0.00    +0.000 C 
ATOM      4  C6  UNL     1       0.887   0.697   1.069  0.00  0.00    +0.000 C 
ATOM      5  C14 UNL     1      -0.530   0.833   0.477  0.00  0.00    +0.000 C 
ENDROOT
BRANCH   4   6
ATOM      6  C7  UNL     1       1.708  -0.435   0.486  0.00  0.00    +0.000 C 
ATOM      7  C8  UNL     1       1.990  -1.514   1.329  0.00  0.00    +0.000 C 
ATOM      8  N1  UNL     1       2.702  -2.611   0.985  0.00  0.00    +0.000 NA
ATOM      9  C9  UNL     1       3.173  -2.681  -0.275  0.00  0.00    +0.000 C 
ATOM     10  C10 UNL     1       3.960  -3.898  -0.654  0.00  0.00    +0.000 C 
ATOM     11  C11 UNL     1       2.941  -1.677  -1.202  0.00  0.00    +0.000 C 
ATOM     12  C12 UNL     1       2.201  -0.548  -0.824  0.00  0.00    +0.000 C 
BRANCH  12  13
ATOM     13  C13 UNL     1       1.965   0.476  -1.866  0.00  0.00    +0.000 C 
ATOM     14  N2  UNL     1       2.389   0.342  -3.085  0.00  0.00    +0.000 NA
BRANCH  14  15
ATOM     15  O1  UNL     1       2.003   1.465  -3.826  0.00  0.00    +0.000 OA
ATOM     16  H   UNL     1       2.231   1.529  -4.733  0.00  0.00    +0.000 HD
ENDBRANCH  14  15
ENDBRANCH  12  13
ENDBRANCH   4   6
BRANCH   1  18
ATOM     17  C1  UNL     1      -1.900   3.959   2.460  0.00  0.00    +0.000 C 
ATOM     18  C2  UNL     1      -1.443   2.526   2.215  0.00  0.00    +0.000 C 
ENDBRANCH   1  18
BRANCH   5  19
ATOM     19  C15 UNL     1      -1.507  -0.203   1.021  0.00  0.00    +0.000 C 
ATOM     20  O2  UNL     1      -1.336  -0.754   2.109  0.00  0.00    +0.000 OA
BRANCH  19  21
ATOM     21  C16 UNL     1      -2.718  -0.530   0.168  0.00  0.00    +0.000 C 
BRANCH  21  22
ATOM     22  C17 UNL     1      -2.382  -1.498  -0.973  0.00  0.00    +0.000 C 
ATOM     23  C18 UNL     1      -3.576  -1.623  -1.920  0.00  0.00    +0.000 C 
ATOM     24  C19 UNL     1      -1.988  -2.880  -0.445  0.00  0.00    +0.000 C 
ENDBRANCH  21  22
ENDBRANCH  19  21
ENDBRANCH   5  19
TORSDOF 7
