MODEL 1
REMARK VINA RESULT:    -9.422      0.000      0.000
REMARK INTER + INTRA:         -14.531
REMARK INTER:                 -13.002
REMARK INTRA:                  -1.529
REMARK UNBOUND:                -1.529
REMARK  Name = teste_hibrido_g3\Hibrido_G3_Top1.pdb
REMARK  11 active torsions:
REMARK  status: ('A' for Active; 'I' for Inactive)
REMARK    1  A    between atoms: C1_1  and  C2_2
REMARK    2  A    between atoms: C2_2  and  C3_3
REMARK    3  A    between atoms: C3_3  and  C4_4
REMARK    4  A    between atoms: C3_3  and  C5_5
REMARK    5  A    between atoms: C5_5  and  C6_6
REMARK    6  A    between atoms: C6_6  and  C7_8
REMARK    7  A    between atoms: C8_9  and  C9_10
REMARK    8  A    between atoms: C12_13  and  C13_14
REMARK    9  A    between atoms: C15_17  and  C16_18
REMARK   10  A    between atoms: C18_20  and  C19_21
REMARK   11  A    between atoms: N2_22  and  O2_23
REMARK                            x       y       z     vdW  Elec       q    Type
REMARK                         _______ _______ _______ _____ _____    ______ ____
ROOT
ATOM      1  C7  UNL     1       3.234  68.039  63.679  0.00  0.00    +0.000 C 
ATOM      2  C8  UNL     1       4.308  68.022  62.581  0.00  0.00    +0.000 C 
ATOM      3  C9  UNL     1       3.736  68.088  61.170  0.00  0.00    +0.000 C 
ATOM      4  C10 UNL     1       5.151  69.251  62.911  0.00  0.00    +0.000 C 
ATOM      5  C11 UNL     1       5.256  69.247  64.430  0.00  0.00    +0.000 C 
ATOM      6  C12 UNL     1       3.963  68.579  64.939  0.00  0.00    +0.000 C 
ENDROOT
BRANCH   6   7
ATOM      7  C13 UNL     1       4.169  67.657  66.122  0.00  0.00    +0.000 C 
ATOM      8  C14 UNL     1       5.198  66.716  66.045  0.00  0.00    +0.000 C 
ATOM      9  N1  UNL     1       5.560  65.870  67.036  0.00  0.00    +0.000 NA
ATOM     10  C15 UNL     1       4.876  65.931  68.197  0.00  0.00    +0.000 C 
ATOM     11  C16 UNL     1       5.293  65.007  69.300  0.00  0.00    +0.000 C 
ATOM     12  C17 UNL     1       3.819  66.807  68.380  0.00  0.00    +0.000 C 
ATOM     13  C18 UNL     1       3.467  67.667  67.334  0.00  0.00    +0.000 C 
BRANCH  13  14
ATOM     14  C19 UNL     1       2.295  68.521  67.582  0.00  0.00    +0.000 C 
ATOM     15  N2  UNL     1       1.057  68.138  67.661  0.00  0.00    +0.000 NA
BRANCH  15  16
ATOM     16  O2  UNL     1       0.936  66.747  67.539  0.00  0.00    +0.000 OA
ATOM     17  H   UNL     1       1.167  66.326  66.734  0.00  0.00    +0.000 HD
ENDBRANCH  15  16
ENDBRANCH  13  14
ENDBRANCH   6   7
BRANCH   1  18
ATOM     18  C6  UNL     1       2.458  66.731  63.836  0.00  0.00    +0.000 C 
ATOM     19  O1  UNL     1       2.969  65.630  63.620  0.00  0.00    +0.000 OA
BRANCH  18  20
ATOM     20  C5  UNL     1       0.993  66.841  64.237  0.00  0.00    +0.000 C 
BRANCH  20  21
ATOM     21  C3  UNL     1       0.384  68.202  63.865  0.00  0.00    +0.000 C 
ATOM     22  C4  UNL     1      -0.802  68.532  64.782  0.00  0.00    +0.000 C 
BRANCH  21  24
ATOM     23  C1  UNL     1       0.405  69.454  61.624  0.00  0.00    +0.000 C 
ATOM     24  C2  UNL     1      -0.087  68.238  62.397  0.00  0.00    +0.000 C 
ENDBRANCH  21  24
ENDBRANCH  20  21
ENDBRANCH  18  20
ENDBRANCH   1  18
TORSDOF 7
ENDMDL
MODEL 2
REMARK VINA RESULT:    -8.820      1.668      2.934
REMARK INTER + INTRA:         -13.701
REMARK INTER:                 -12.440
REMARK INTRA:                  -1.260
REMARK UNBOUND:                -1.529
REMARK  Name = teste_hibrido_g3\Hibrido_G3_Top1.pdb
REMARK  11 active torsions:
REMARK  status: ('A' for Active; 'I' for Inactive)
REMARK    1  A    between atoms: C1_1  and  C2_2
REMARK    2  A    between atoms: C2_2  and  C3_3
REMARK    3  A    between atoms: C3_3  and  C4_4
REMARK    4  A    between atoms: C3_3  and  C5_5
REMARK    5  A    between atoms: C5_5  and  C6_6
REMARK    6  A    between atoms: C6_6  and  C7_8
REMARK    7  A    between atoms: C8_9  and  C9_10
REMARK    8  A    between atoms: C12_13  and  C13_14
REMARK    9  A    between atoms: C15_17  and  C16_18
REMARK   10  A    between atoms: C18_20  and  C19_21
REMARK   11  A    between atoms: N2_22  and  O2_23
REMARK                            x       y       z     vdW  Elec       q    Type
REMARK                         _______ _______ _______ _____ _____    ______ ____
ROOT
ATOM      1  C7  UNL     1       2.549  68.535  64.130  0.00  0.00    +0.000 C 
ATOM      2  C8  UNL     1       3.065  68.176  62.729  0.00  0.00    +0.000 C 
ATOM      3  C9  UNL     1       2.140  68.631  61.606  0.00  0.00    +0.000 C 
ATOM      4  C10 UNL     1       4.417  68.884  62.673  0.00  0.00    +0.000 C 
ATOM      5  C11 UNL     1       5.016  68.674  64.058  0.00  0.00    +0.000 C 
ATOM      6  C12 UNL     1       3.819  68.574  65.023  0.00  0.00    +0.000 C 
ENDROOT
BRANCH   6   7
ATOM      7  C13 UNL     1       3.987  67.532  66.109  0.00  0.00    +0.000 C 
ATOM      8  C14 UNL     1       3.699  67.905  67.423  0.00  0.00    +0.000 C 
ATOM      9  N1  UNL     1       3.728  67.081  68.495  0.00  0.00    +0.000 NA
ATOM     10  C15 UNL     1       4.064  65.792  68.287  0.00  0.00    +0.000 C 
ATOM     11  C16 UNL     1       4.074  64.876  69.474  0.00  0.00    +0.000 C 
ATOM     12  C17 UNL     1       4.393  65.312  67.031  0.00  0.00    +0.000 C 
ATOM     13  C18 UNL     1       4.358  66.191  65.943  0.00  0.00    +0.000 C 
BRANCH  13  14
ATOM     14  C19 UNL     1       4.784  65.624  64.654  0.00  0.00    +0.000 C 
ATOM     15  N2  UNL     1       4.136  64.759  63.934  0.00  0.00    +0.000 NA
BRANCH  15  16
ATOM     16  O2  UNL     1       2.895  64.439  64.501  0.00  0.00    +0.000 OA
ATOM     17  H   UNL     1       2.434  65.077  65.010  0.00  0.00    +0.000 HD
ENDBRANCH  15  16
ENDBRANCH  13  14
ENDBRANCH   6   7
BRANCH   1  18
ATOM     18  C6  UNL     1       1.383  67.677  64.623  0.00  0.00    +0.000 C 
ATOM     19  O1  UNL     1       1.176  66.539  64.196  0.00  0.00    +0.000 OA
BRANCH  18  20
ATOM     20  C5  UNL     1       0.447  68.304  65.646  0.00  0.00    +0.000 C 
BRANCH  20  21
ATOM     21  C3  UNL     1      -0.910  67.585  65.719  0.00  0.00    +0.000 C 
ATOM     22  C4  UNL     1      -2.061  68.578  65.504  0.00  0.00    +0.000 C 
BRANCH  21  24
ATOM     23  C1  UNL     1       0.077  67.002  68.015  0.00  0.00    +0.000 C 
ATOM     24  C2  UNL     1      -1.108  66.868  67.069  0.00  0.00    +0.000 C 
ENDBRANCH  21  24
ENDBRANCH  20  21
ENDBRANCH  18  20
ENDBRANCH   1  18
TORSDOF 7
ENDMDL
MODEL 3
REMARK VINA RESULT:    -8.774      2.404      5.332
REMARK INTER + INTRA:         -13.637
REMARK INTER:                 -13.252
REMARK INTRA:                  -0.384
REMARK UNBOUND:                -1.529
REMARK  Name = teste_hibrido_g3\Hibrido_G3_Top1.pdb
REMARK  11 active torsions:
REMARK  status: ('A' for Active; 'I' for Inactive)
REMARK    1  A    between atoms: C1_1  and  C2_2
REMARK    2  A    between atoms: C2_2  and  C3_3
REMARK    3  A    between atoms: C3_3  and  C4_4
REMARK    4  A    between atoms: C3_3  and  C5_5
REMARK    5  A    between atoms: C5_5  and  C6_6
REMARK    6  A    between atoms: C6_6  and  C7_8
REMARK    7  A    between atoms: C8_9  and  C9_10
REMARK    8  A    between atoms: C12_13  and  C13_14
REMARK    9  A    between atoms: C15_17  and  C16_18
REMARK   10  A    between atoms: C18_20  and  C19_21
REMARK   11  A    between atoms: N2_22  and  O2_23
REMARK                            x       y       z     vdW  Elec       q    Type
REMARK                         _______ _______ _______ _____ _____    ______ ____
ROOT
ATOM      1  C7  UNL     1       4.505  67.339  66.840  0.00  0.00    +0.000 C 
ATOM      2  C8  UNL     1       3.445  66.713  67.758  0.00  0.00    +0.000 C 
ATOM      3  C9  UNL     1       4.034  65.826  68.850  0.00  0.00    +0.000 C 
ATOM      4  C10 UNL     1       2.734  67.933  68.339  0.00  0.00    +0.000 C 
ATOM      5  C11 UNL     1       2.616  68.900  67.169  0.00  0.00    +0.000 C 
ATOM      6  C12 UNL     1       3.826  68.609  66.259  0.00  0.00    +0.000 C 
ENDROOT
BRANCH   6   7
ATOM      7  C13 UNL     1       3.512  68.664  64.779  0.00  0.00    +0.000 C 
ATOM      8  C14 UNL     1       4.552  68.977  63.902  0.00  0.00    +0.000 C 
ATOM      9  N1  UNL     1       4.459  68.997  62.553  0.00  0.00    +0.000 NA
ATOM     10  C15 UNL     1       3.267  68.693  62.000  0.00  0.00    +0.000 C 
ATOM     11  C16 UNL     1       3.173  68.696  60.504  0.00  0.00    +0.000 C 
ATOM     12  C17 UNL     1       2.157  68.390  62.770  0.00  0.00    +0.000 C 
ATOM     13  C18 UNL     1       2.285  68.382  64.164  0.00  0.00    +0.000 C 
BRANCH  13  14
ATOM     14  C19 UNL     1       1.048  68.115  64.914  0.00  0.00    +0.000 C 
ATOM     15  N2  UNL     1       0.466  66.965  65.070  0.00  0.00    +0.000 NA
BRANCH  15  16
ATOM     16  O2  UNL     1       1.198  65.930  64.471  0.00  0.00    +0.000 OA
ATOM     17  H   UNL     1       1.892  66.132  63.874  0.00  0.00    +0.000 HD
ENDBRANCH  15  16
ENDBRANCH  13  14
ENDBRANCH   6   7
BRANCH   1  18
ATOM     18  C6  UNL     1       5.137  66.373  65.838  0.00  0.00    +0.000 C 
ATOM     19  O1  UNL     1       6.343  66.383  65.583  0.00  0.00    +0.000 OA
BRANCH  18  20
ATOM     20  C5  UNL     1       4.200  65.410  65.122  0.00  0.00    +0.000 C 
BRANCH  20  21
ATOM     21  C3  UNL     1       4.841  64.792  63.868  0.00  0.00    +0.000 C 
ATOM     22  C4  UNL     1       4.427  65.569  62.610  0.00  0.00    +0.000 C 
BRANCH  21  24
ATOM     23  C1  UNL     1       5.215  62.599  62.588  0.00  0.00    +0.000 C 
ATOM     24  C2  UNL     1       4.452  63.310  63.697  0.00  0.00    +0.000 C 
ENDBRANCH  21  24
ENDBRANCH  20  21
ENDBRANCH  18  20
ENDBRANCH   1  18
TORSDOF 7
ENDMDL
MODEL 4
REMARK VINA RESULT:    -8.621      2.574      5.777
REMARK INTER + INTRA:         -13.426
REMARK INTER:                 -13.213
REMARK INTRA:                  -0.213
REMARK UNBOUND:                -1.529
REMARK  Name = teste_hibrido_g3\Hibrido_G3_Top1.pdb
REMARK  11 active torsions:
REMARK  status: ('A' for Active; 'I' for Inactive)
REMARK    1  A    between atoms: C1_1  and  C2_2
REMARK    2  A    between atoms: C2_2  and  C3_3
REMARK    3  A    between atoms: C3_3  and  C4_4
REMARK    4  A    between atoms: C3_3  and  C5_5
REMARK    5  A    between atoms: C5_5  and  C6_6
REMARK    6  A    between atoms: C6_6  and  C7_8
REMARK    7  A    between atoms: C8_9  and  C9_10
REMARK    8  A    between atoms: C12_13  and  C13_14
REMARK    9  A    between atoms: C15_17  and  C16_18
REMARK   10  A    between atoms: C18_20  and  C19_21
REMARK   11  A    between atoms: N2_22  and  O2_23
REMARK                            x       y       z     vdW  Elec       q    Type
REMARK                         _______ _______ _______ _____ _____    ______ ____
ROOT
ATOM      1  C7  UNL     1       4.701  67.070  66.910  0.00  0.00    +0.000 C 
ATOM      2  C8  UNL     1       3.994  66.217  67.973  0.00  0.00    +0.000 C 
ATOM      3  C9  UNL     1       4.953  65.405  68.836  0.00  0.00    +0.000 C 
ATOM      4  C10 UNL     1       3.234  67.256  68.793  0.00  0.00    +0.000 C 
ATOM      5  C11 UNL     1       2.696  68.239  67.761  0.00  0.00    +0.000 C 
ATOM      6  C12 UNL     1       3.704  68.219  66.596  0.00  0.00    +0.000 C 
ENDROOT
BRANCH   6   7
ATOM      7  C13 UNL     1       3.065  68.283  65.225  0.00  0.00    +0.000 C 
ATOM      8  C14 UNL     1       1.755  67.820  65.092  0.00  0.00    +0.000 C 
ATOM      9  N1  UNL     1       1.016  67.872  63.961  0.00  0.00    +0.000 NA
ATOM     10  C15 UNL     1       1.585  68.414  62.864  0.00  0.00    +0.000 C 
ATOM     11  C16 UNL     1       0.757  68.489  61.617  0.00  0.00    +0.000 C 
ATOM     12  C17 UNL     1       2.887  68.884  62.869  0.00  0.00    +0.000 C 
ATOM     13  C18 UNL     1       3.626  68.812  64.055  0.00  0.00    +0.000 C 
BRANCH  13  14
ATOM     14  C19 UNL     1       5.020  69.271  63.963  0.00  0.00    +0.000 C 
ATOM     15  N2  UNL     1       5.771  69.274  62.904  0.00  0.00    +0.000 NA
BRANCH  15  16
ATOM     16  O2  UNL     1       5.072  68.825  61.775  0.00  0.00    +0.000 OA
ATOM     17  H   UNL     1       5.443  68.930  60.921  0.00  0.00    +0.000 HD
ENDBRANCH  15  16
ENDBRANCH  13  14
ENDBRANCH   6   7
BRANCH   1  18
ATOM     18  C6  UNL     1       5.249  66.285  65.718  0.00  0.00    +0.000 C 
ATOM     19  O1  UNL     1       6.372  66.492  65.252  0.00  0.00    +0.000 OA
BRANCH  18  20
ATOM     20  C5  UNL     1       4.327  65.250  65.090  0.00  0.00    +0.000 C 
BRANCH  20  21
ATOM     21  C3  UNL     1       4.855  64.736  63.741  0.00  0.00    +0.000 C 
ATOM     22  C4  UNL     1       4.322  65.597  62.587  0.00  0.00    +0.000 C 
BRANCH  21  24
ATOM     23  C1  UNL     1       5.412  62.525  62.560  0.00  0.00    +0.000 C 
ATOM     24  C2  UNL     1       4.464  63.265  63.494  0.00  0.00    +0.000 C 
ENDBRANCH  21  24
ENDBRANCH  20  21
ENDBRANCH  18  20
ENDBRANCH   1  18
TORSDOF 7
ENDMDL
MODEL 5
REMARK VINA RESULT:    -7.780      5.629      8.883
REMARK INTER + INTRA:         -12.265
REMARK INTER:                 -11.180
REMARK INTRA:                  -1.085
REMARK UNBOUND:                -1.529
REMARK  Name = teste_hibrido_g3\Hibrido_G3_Top1.pdb
REMARK  11 active torsions:
REMARK  status: ('A' for Active; 'I' for Inactive)
REMARK    1  A    between atoms: C1_1  and  C2_2
REMARK    2  A    between atoms: C2_2  and  C3_3
REMARK    3  A    between atoms: C3_3  and  C4_4
REMARK    4  A    between atoms: C3_3  and  C5_5
REMARK    5  A    between atoms: C5_5  and  C6_6
REMARK    6  A    between atoms: C6_6  and  C7_8
REMARK    7  A    between atoms: C8_9  and  C9_10
REMARK    8  A    between atoms: C12_13  and  C13_14
REMARK    9  A    between atoms: C15_17  and  C16_18
REMARK   10  A    between atoms: C18_20  and  C19_21
REMARK   11  A    between atoms: N2_22  and  O2_23
REMARK                            x       y       z     vdW  Elec       q    Type
REMARK                         _______ _______ _______ _____ _____    ______ ____
ROOT
ATOM      1  C7  UNL     1       1.356  60.318  70.707  0.00  0.00    +0.000 C 
ATOM      2  C8  UNL     1       1.905  59.194  71.598  0.00  0.00    +0.000 C 
ATOM      3  C9  UNL     1       0.838  58.519  72.451  0.00  0.00    +0.000 C 
ATOM      4  C10 UNL     1       2.519  58.228  70.587  0.00  0.00    +0.000 C 
ATOM      5  C11 UNL     1       3.195  59.127  69.560  0.00  0.00    +0.000 C 
ATOM      6  C12 UNL     1       2.374  60.432  69.539  0.00  0.00    +0.000 C 
ENDROOT
BRANCH   6   7
ATOM      7  C13 UNL     1       3.213  61.686  69.414  0.00  0.00    +0.000 C 
ATOM      8  C14 UNL     1       3.036  62.481  68.280  0.00  0.00    +0.000 C 
ATOM      9  N1  UNL     1       3.649  63.664  68.049  0.00  0.00    +0.000 NA
ATOM     10  C15 UNL     1       4.507  64.120  68.985  0.00  0.00    +0.000 C 
ATOM     11  C16 UNL     1       5.169  65.441  68.736  0.00  0.00    +0.000 C 
ATOM     12  C17 UNL     1       4.782  63.407  70.139  0.00  0.00    +0.000 C 
ATOM     13  C18 UNL     1       4.133  62.184  70.346  0.00  0.00    +0.000 C 
BRANCH  13  14
ATOM     14  C19 UNL     1       4.526  61.455  71.563  0.00  0.00    +0.000 C 
ATOM     15  N2  UNL     1       5.531  60.644  71.693  0.00  0.00    +0.000 NA
BRANCH  15  16
ATOM     16  O2  UNL     1       6.286  60.563  70.515  0.00  0.00    +0.000 OA
ATOM     17  H   UNL     1       7.222  60.551  70.558  0.00  0.00    +0.000 HD
ENDBRANCH  15  16
ENDBRANCH  13  14
ENDBRANCH   6   7
BRANCH   1  18
ATOM     18  C6  UNL     1       1.006  61.610  71.447  0.00  0.00    +0.000 C 
ATOM     19  O1  UNL     1       1.401  61.842  72.591  0.00  0.00    +0.000 OA
BRANCH  18  20
ATOM     20  C5  UNL     1       0.101  62.597  70.723  0.00  0.00    +0.000 C 
BRANCH  20  21
ATOM     21  C3  UNL     1       0.562  64.053  70.899  0.00  0.00    +0.000 C 
ATOM     22  C4  UNL     1      -0.141  64.701  72.100  0.00  0.00    +0.000 C 
BRANCH  21  24
ATOM     23  C1  UNL     1       1.369  65.931  69.346  0.00  0.00    +0.000 C 
ATOM     24  C2  UNL     1       0.290  64.897  69.638  0.00  0.00    +0.000 C 
ENDBRANCH  21  24
ENDBRANCH  20  21
ENDBRANCH  18  20
ENDBRANCH   1  18
TORSDOF 7
ENDMDL
MODEL 6
REMARK VINA RESULT:    -7.355      6.007      9.667
REMARK INTER + INTRA:         -11.678
REMARK INTER:                 -10.774
REMARK INTRA:                  -0.905
REMARK UNBOUND:                -1.529
REMARK  Name = teste_hibrido_g3\Hibrido_G3_Top1.pdb
REMARK  11 active torsions:
REMARK  status: ('A' for Active; 'I' for Inactive)
REMARK    1  A    between atoms: C1_1  and  C2_2
REMARK    2  A    between atoms: C2_2  and  C3_3
REMARK    3  A    between atoms: C3_3  and  C4_4
REMARK    4  A    between atoms: C3_3  and  C5_5
REMARK    5  A    between atoms: C5_5  and  C6_6
REMARK    6  A    between atoms: C6_6  and  C7_8
REMARK    7  A    between atoms: C8_9  and  C9_10
REMARK    8  A    between atoms: C12_13  and  C13_14
REMARK    9  A    between atoms: C15_17  and  C16_18
REMARK   10  A    between atoms: C18_20  and  C19_21
REMARK   11  A    between atoms: N2_22  and  O2_23
REMARK                            x       y       z     vdW  Elec       q    Type
REMARK                         _______ _______ _______ _____ _____    ______ ____
ROOT
ATOM      1  C7  UNL     1       1.238  60.452  70.587  0.00  0.00    +0.000 C 
ATOM      2  C8  UNL     1       1.690  59.418  71.629  0.00  0.00    +0.000 C 
ATOM      3  C9  UNL     1       0.538  58.804  72.415  0.00  0.00    +0.000 C 
ATOM      4  C10 UNL     1       2.417  58.377  70.780  0.00  0.00    +0.000 C 
ATOM      5  C11 UNL     1       3.198  59.194  69.759  0.00  0.00    +0.000 C 
ATOM      6  C12 UNL     1       2.378  60.480  69.533  0.00  0.00    +0.000 C 
ENDROOT
BRANCH   6   7
ATOM      7  C13 UNL     1       3.219  61.731  69.392  0.00  0.00    +0.000 C 
ATOM      8  C14 UNL     1       3.047  62.508  68.245  0.00  0.00    +0.000 C 
ATOM      9  N1  UNL     1       3.663  63.686  67.997  0.00  0.00    +0.000 NA
ATOM     10  C15 UNL     1       4.517  64.156  68.930  0.00  0.00    +0.000 C 
ATOM     11  C16 UNL     1       5.182  65.473  68.662  0.00  0.00    +0.000 C 
ATOM     12  C17 UNL     1       4.786  63.461  70.096  0.00  0.00    +0.000 C 
ATOM     13  C18 UNL     1       4.135  62.243  70.320  0.00  0.00    +0.000 C 
BRANCH  13  14
ATOM     14  C19 UNL     1       4.521  61.534  71.550  0.00  0.00    +0.000 C 
ATOM     15  N2  UNL     1       5.523  60.721  71.697  0.00  0.00    +0.000 NA
BRANCH  15  16
ATOM     16  O2  UNL     1       6.282  60.619  70.523  0.00  0.00    +0.000 OA
ATOM     17  H   UNL     1       7.218  60.604  70.570  0.00  0.00    +0.000 HD
ENDBRANCH  15  16
ENDBRANCH  13  14
ENDBRANCH   6   7
BRANCH   1  18
ATOM     18  C6  UNL     1       0.800  61.798  71.168  0.00  0.00    +0.000 C 
ATOM     19  O1  UNL     1       0.226  62.653  70.490  0.00  0.00    +0.000 OA
BRANCH  18  20
ATOM     20  C5  UNL     1       1.142  62.064  72.627  0.00  0.00    +0.000 C 
BRANCH  20  21
ATOM     21  C3  UNL     1      -0.027  62.700  73.396  0.00  0.00    +0.000 C 
ATOM     22  C4  UNL     1       0.494  63.655  74.480  0.00  0.00    +0.000 C 
BRANCH  21  24
ATOM     23  C1  UNL     1      -2.079  61.175  73.169  0.00  0.00    +0.000 C 
ATOM     24  C2  UNL     1      -0.929  61.636  74.053  0.00  0.00    +0.000 C 
ENDBRANCH  21  24
ENDBRANCH  20  21
ENDBRANCH  18  20
ENDBRANCH   1  18
TORSDOF 7
ENDMDL
MODEL 7
REMARK VINA RESULT:    -7.106      6.850     10.096
REMARK INTER + INTRA:         -11.335
REMARK INTER:                 -10.523
REMARK INTRA:                  -0.811
REMARK UNBOUND:                -1.529
REMARK  Name = teste_hibrido_g3\Hibrido_G3_Top1.pdb
REMARK  11 active torsions:
REMARK  status: ('A' for Active; 'I' for Inactive)
REMARK    1  A    between atoms: C1_1  and  C2_2
REMARK    2  A    between atoms: C2_2  and  C3_3
REMARK    3  A    between atoms: C3_3  and  C4_4
REMARK    4  A    between atoms: C3_3  and  C5_5
REMARK    5  A    between atoms: C5_5  and  C6_6
REMARK    6  A    between atoms: C6_6  and  C7_8
REMARK    7  A    between atoms: C8_9  and  C9_10
REMARK    8  A    between atoms: C12_13  and  C13_14
REMARK    9  A    between atoms: C15_17  and  C16_18
REMARK   10  A    between atoms: C18_20  and  C19_21
REMARK   11  A    between atoms: N2_22  and  O2_23
REMARK                            x       y       z     vdW  Elec       q    Type
REMARK                         _______ _______ _______ _____ _____    ______ ____
ROOT
ATOM      1  C7  UNL     1       1.241  61.576  70.772  0.00  0.00    +0.000 C 
ATOM      2  C8  UNL     1       0.443  62.780  71.293  0.00  0.00    +0.000 C 
ATOM      3  C9  UNL     1       0.369  63.935  70.300  0.00  0.00    +0.000 C 
ATOM      4  C10 UNL     1      -0.934  62.182  71.571  0.00  0.00    +0.000 C 
ATOM      5  C11 UNL     1      -0.642  60.819  72.185  0.00  0.00    +0.000 C 
ATOM      6  C12 UNL     1       0.699  60.363  71.578  0.00  0.00    +0.000 C 
ENDROOT
BRANCH   6   7
ATOM      7  C13 UNL     1       1.616  59.665  72.561  0.00  0.00    +0.000 C 
ATOM      8  C14 UNL     1       1.636  60.127  73.878  0.00  0.00    +0.000 C 
ATOM      9  N1  UNL     1       2.340  59.574  74.891  0.00  0.00    +0.000 NA
ATOM     10  C15 UNL     1       3.089  58.486  74.616  0.00  0.00    +0.000 C 
ATOM     11  C16 UNL     1       3.851  57.863  75.746  0.00  0.00    +0.000 C 
ATOM     12  C17 UNL     1       3.166  57.953  73.341  0.00  0.00    +0.000 C 
ATOM     13  C18 UNL     1       2.429  58.551  72.313  0.00  0.00    +0.000 C 
BRANCH  13  14
ATOM     14  C19 UNL     1       2.614  57.967  70.976  0.00  0.00    +0.000 C 
ATOM     15  N2  UNL     1       3.585  58.210  70.149  0.00  0.00    +0.000 NA
BRANCH  15  16
ATOM     16  O2  UNL     1       4.527  59.088  70.701  0.00  0.00    +0.000 OA
ATOM     17  H   UNL     1       5.444  58.927  70.584  0.00  0.00    +0.000 HD
ENDBRANCH  15  16
ENDBRANCH  13  14
ENDBRANCH   6   7
BRANCH   1  18
ATOM     18  C6  UNL     1       2.757  61.771  70.752  0.00  0.00    +0.000 C 
ATOM     19  O1  UNL     1       3.427  61.838  71.785  0.00  0.00    +0.000 OA
BRANCH  18  20
ATOM     20  C5  UNL     1       3.416  61.924  69.388  0.00  0.00    +0.000 C 
BRANCH  20  21
ATOM     21  C3  UNL     1       3.530  63.395  68.954  0.00  0.00    +0.000 C 
ATOM     22  C4  UNL     1       3.551  63.506  67.423  0.00  0.00    +0.000 C 
BRANCH  21  24
ATOM     23  C1  UNL     1       5.287  65.250  68.707  0.00  0.00    +0.000 C 
ATOM     24  C2  UNL     1       4.795  64.065  69.526  0.00  0.00    +0.000 C 
ENDBRANCH  21  24
ENDBRANCH  20  21
ENDBRANCH  18  20
ENDBRANCH   1  18
TORSDOF 7
ENDMDL
MODEL 8
REMARK VINA RESULT:    -6.844      6.584      9.292
REMARK INTER + INTRA:         -10.974
REMARK INTER:                  -9.169
REMARK INTRA:                  -1.805
REMARK UNBOUND:                -1.529
REMARK  Name = teste_hibrido_g3\Hibrido_G3_Top1.pdb
REMARK  11 active torsions:
REMARK  status: ('A' for Active; 'I' for Inactive)
REMARK    1  A    between atoms: C1_1  and  C2_2
REMARK    2  A    between atoms: C2_2  and  C3_3
REMARK    3  A    between atoms: C3_3  and  C4_4
REMARK    4  A    between atoms: C3_3  and  C5_5
REMARK    5  A    between atoms: C5_5  and  C6_6
REMARK    6  A    between atoms: C6_6  and  C7_8
REMARK    7  A    between atoms: C8_9  and  C9_10
REMARK    8  A    between atoms: C12_13  and  C13_14
REMARK    9  A    between atoms: C15_17  and  C16_18
REMARK   10  A    between atoms: C18_20  and  C19_21
REMARK   11  A    between atoms: N2_22  and  O2_23
REMARK                            x       y       z     vdW  Elec       q    Type
REMARK                         _______ _______ _______ _____ _____    ______ ____
ROOT
ATOM      1  C7  UNL     1       2.908  62.249  70.584  0.00  0.00    +0.000 C 
ATOM      2  C8  UNL     1       4.236  62.058  69.836  0.00  0.00    +0.000 C 
ATOM      3  C9  UNL     1       4.584  63.217  68.909  0.00  0.00    +0.000 C 
ATOM      4  C10 UNL     1       5.248  61.916  70.971  0.00  0.00    +0.000 C 
ATOM      5  C11 UNL     1       4.539  61.058  72.011  0.00  0.00    +0.000 C 
ATOM      6  C12 UNL     1       3.036  61.362  71.853  0.00  0.00    +0.000 C 
ENDROOT
BRANCH   6   7
ATOM      7  C13 UNL     1       2.143  60.148  71.994  0.00  0.00    +0.000 C 
ATOM      8  C14 UNL     1       2.529  58.973  71.347  0.00  0.00    +0.000 C 
ATOM      9  N1  UNL     1       1.887  57.786  71.429  0.00  0.00    +0.000 NA
ATOM     10  C15 UNL     1       0.778  57.723  72.196  0.00  0.00    +0.000 C 
ATOM     11  C16 UNL     1       0.080  56.401  72.301  0.00  0.00    +0.000 C 
ATOM     12  C17 UNL     1       0.286  58.830  72.866  0.00  0.00    +0.000 C 
ATOM     13  C18 UNL     1       0.972  60.045  72.757  0.00  0.00    +0.000 C 
BRANCH  13  14
ATOM     14  C19 UNL     1       0.352  61.188  73.444  0.00  0.00    +0.000 C 
ATOM     15  N2  UNL     1       0.671  61.661  74.610  0.00  0.00    +0.000 NA
BRANCH  15  16
ATOM     16  O2  UNL     1       1.763  60.979  75.163  0.00  0.00    +0.000 OA
ATOM     17  H   UNL     1       1.929  60.088  74.924  0.00  0.00    +0.000 HD
ENDBRANCH  15  16
ENDBRANCH  13  14
ENDBRANCH   6   7
BRANCH   1  18
ATOM     18  C6  UNL     1       1.657  62.054  69.727  0.00  0.00    +0.000 C 
ATOM     19  O1  UNL     1       1.638  61.305  68.749  0.00  0.00    +0.000 OA
BRANCH  18  20
ATOM     20  C5  UNL     1       0.426  62.866  70.108  0.00  0.00    +0.000 C 
BRANCH  20  21
ATOM     21  C3  UNL     1       0.788  64.201  70.777  0.00  0.00    +0.000 C 
ATOM     22  C4  UNL     1      -0.052  64.417  72.043  0.00  0.00    +0.000 C 
BRANCH  21  24
ATOM     23  C1  UNL     1       1.864  65.891  69.172  0.00  0.00    +0.000 C 
ATOM     24  C2  UNL     1       0.581  65.395  69.824  0.00  0.00    +0.000 C 
ENDBRANCH  21  24
ENDBRANCH  20  21
ENDBRANCH  18  20
ENDBRANCH   1  18
TORSDOF 7
ENDMDL
MODEL 9
REMARK VINA RESULT:    -6.673      6.408      9.536
REMARK INTER + INTRA:         -10.738
REMARK INTER:                  -9.461
REMARK INTRA:                  -1.277
REMARK UNBOUND:                -1.529
REMARK  Name = teste_hibrido_g3\Hibrido_G3_Top1.pdb
REMARK  11 active torsions:
REMARK  status: ('A' for Active; 'I' for Inactive)
REMARK    1  A    between atoms: C1_1  and  C2_2
REMARK    2  A    between atoms: C2_2  and  C3_3
REMARK    3  A    between atoms: C3_3  and  C4_4
REMARK    4  A    between atoms: C3_3  and  C5_5
REMARK    5  A    between atoms: C5_5  and  C6_6
REMARK    6  A    between atoms: C6_6  and  C7_8
REMARK    7  A    between atoms: C8_9  and  C9_10
REMARK    8  A    between atoms: C12_13  and  C13_14
REMARK    9  A    between atoms: C15_17  and  C16_18
REMARK   10  A    between atoms: C18_20  and  C19_21
REMARK   11  A    between atoms: N2_22  and  O2_23
REMARK                            x       y       z     vdW  Elec       q    Type
REMARK                         _______ _______ _______ _____ _____    ______ ____
ROOT
ATOM      1  C7  UNL     1       3.264  61.734  71.313  0.00  0.00    +0.000 C 
ATOM      2  C8  UNL     1       3.957  60.449  70.835  0.00  0.00    +0.000 C 
ATOM      3  C9  UNL     1       5.039  60.695  69.790  0.00  0.00    +0.000 C 
ATOM      4  C10 UNL     1       4.535  59.874  72.126  0.00  0.00    +0.000 C 
ATOM      5  C11 UNL     1       3.451  60.112  73.170  0.00  0.00    +0.000 C 
ATOM      6  C12 UNL     1       2.706  61.384  72.719  0.00  0.00    +0.000 C 
ENDROOT
BRANCH   6   7
ATOM      7  C13 UNL     1       1.207  61.325  72.922  0.00  0.00    +0.000 C 
ATOM      8  C14 UNL     1       0.533  60.181  72.490  0.00  0.00    +0.000 C 
ATOM      9  N1  UNL     1      -0.787  59.938  72.660  0.00  0.00    +0.000 NA
ATOM     10  C15 UNL     1      -1.521  60.875  73.295  0.00  0.00    +0.000 C 
ATOM     11  C16 UNL     1      -2.979  60.594  73.500  0.00  0.00    +0.000 C 
ATOM     12  C17 UNL     1      -0.967  62.061  73.746  0.00  0.00    +0.000 C 
ATOM     13  C18 UNL     1       0.400  62.283  73.552  0.00  0.00    +0.000 C 
BRANCH  13  14
ATOM     14  C19 UNL     1       0.901  63.592  74.000  0.00  0.00    +0.000 C 
ATOM     15  N2  UNL     1       1.314  63.900  75.191  0.00  0.00    +0.000 NA
BRANCH  15  16
ATOM     16  O2  UNL     1       1.291  62.792  76.049  0.00  0.00    +0.000 OA
ATOM     17  H   UNL     1       1.651  61.973  75.767  0.00  0.00    +0.000 HD
ENDBRANCH  15  16
ENDBRANCH  13  14
ENDBRANCH   6   7
BRANCH   1  18
ATOM     18  C6  UNL     1       2.282  62.343  70.311  0.00  0.00    +0.000 C 
ATOM     19  O1  UNL     1       1.658  61.656  69.499  0.00  0.00    +0.000 OA
BRANCH  18  20
ATOM     20  C5  UNL     1       2.131  63.857  70.325  0.00  0.00    +0.000 C 
BRANCH  20  21
ATOM     21  C3  UNL     1       2.920  64.535  69.193  0.00  0.00    +0.000 C 
ATOM     22  C4  UNL     1       4.430  64.386  69.421  0.00  0.00    +0.000 C 
BRANCH  21  24
ATOM     23  C1  UNL     1       3.762  66.910  68.703  0.00  0.00    +0.000 C 
ATOM     24  C2  UNL     1       2.573  66.032  69.069  0.00  0.00    +0.000 C 
ENDBRANCH  21  24
ENDBRANCH  20  21
ENDBRANCH  18  20
ENDBRANCH   1  18
TORSDOF 7
ENDMDL
