REMARK  Name = teste_hibrido_g3\Hibrido_G3_Top9.pdb
REMARK  11 active torsions:
REMARK  status: ('A' for Active; 'I' for Inactive)
REMARK    1  A    between atoms: C1_1  and  C2_2
REMARK    2  A    between atoms: C4_4  and  C5_5
REMARK    3  A    between atoms: N1_6  and  O1_7
REMARK    4  A    between atoms: C6_8  and  C7_9
REMARK    5  A    between atoms: C10_12  and  C11_13
REMARK    6  A    between atoms: C12_14  and  C13_15
REMARK    7  A    between atoms: C13_15  and  C14_17
REMARK    8  A    between atoms: C14_17  and  C15_18
REMARK    9  A    between atoms: C15_18  and  C16_19
REMARK   10  A    between atoms: C15_18  and  C17_20
REMARK   11  A    between atoms: C18_21  and  C19_22
REMARK                            x       y       z     vdW  Elec       q    Type
REMARK                         _______ _______ _______ _____ _____    ______ ____
ROOT
ATOM      1  C1  UNL     1      -2.376   4.203   1.893  0.00  0.00    +0.000 C 
ATOM      2  C2  UNL     1      -2.058   2.929   1.172  0.00  0.00    +0.000 C 
ATOM      3  C3  UNL     1      -1.793   2.937  -0.179  0.00  0.00    +0.000 C 
ATOM      4  C4  UNL     1      -1.510   1.723  -0.806  0.00  0.00    +0.000 C 
ATOM      5  C6  UNL     1      -1.465   0.506  -0.086  0.00  0.00    +0.000 C 
ATOM      6  C18 UNL     1      -1.770   0.604   1.283  0.00  0.00    +0.000 C 
ATOM      7  C19 UNL     1      -1.859  -0.562   2.226  0.00  0.00    +0.000 C 
ATOM      8  N2  UNL     1      -2.044   1.790   1.894  0.00  0.00    +0.000 NA
ENDROOT
BRANCH   5   9
ATOM      9  C7  UNL     1      -1.122  -0.793  -0.798  0.00  0.00    +0.000 C 
ATOM     10  C8  UNL     1      -2.206  -1.890  -0.749  0.00  0.00    +0.000 C 
ATOM     11  C9  UNL     1      -1.512  -3.141  -0.220  0.00  0.00    +0.000 C 
ATOM     12  C10 UNL     1      -0.051  -2.956  -0.622  0.00  0.00    +0.000 C 
ATOM     13  C11 UNL     1       0.885  -3.878   0.147  0.00  0.00    +0.000 C 
ATOM     14  C12 UNL     1       0.193  -1.464  -0.341  0.00  0.00    +0.000 C 
BRANCH  14  15
ATOM     15  C13 UNL     1       1.389  -0.900  -1.101  0.00  0.00    +0.000 C 
ATOM     16  O2  UNL     1       1.758  -1.370  -2.176  0.00  0.00    +0.000 OA
BRANCH  15  17
ATOM     17  C14 UNL     1       2.074   0.319  -0.500  0.00  0.00    +0.000 C 
BRANCH  17  18
ATOM     18  C15 UNL     1       3.596   0.148  -0.420  0.00  0.00    +0.000 C 
ATOM     19  C16 UNL     1       3.981  -0.906   0.620  0.00  0.00    +0.000 C 
ATOM     20  C17 UNL     1       4.255   1.485  -0.076  0.00  0.00    +0.000 C 
ENDBRANCH  17  18
ENDBRANCH  15  17
ENDBRANCH  14  15
ENDBRANCH   5   9
BRANCH   4  21
ATOM     21  C5  UNL     1      -1.196   1.791  -2.252  0.00  0.00    +0.000 C 
ATOM     22  N1  UNL     1      -1.919   2.309  -3.201  0.00  0.00    +0.000 NA
BRANCH  22  23
ATOM     23  O1  UNL     1      -3.148   2.788  -2.732  0.00  0.00    +0.000 OA
ATOM     24  H   UNL     1      -3.754   3.184  -3.327  0.00  0.00    +0.000 HD
ENDBRANCH  22  23
ENDBRANCH   4  21
TORSDOF 6
