REMARK  Name = teste_hibrido_g3\Hibrido_G3_Top4.pdb
REMARK  10 active torsions:
REMARK  status: ('A' for Active; 'I' for Inactive)
REMARK    1  A    between atoms: C1_1  and  C2_2
REMARK    2  A    between atoms: C2_2  and  C3_3
REMARK    3  A    between atoms: C3_3  and  C4_4
REMARK    4  A    between atoms: C3_3  and  C5_5
REMARK    5  A    between atoms: C5_5  and  C6_6
REMARK    6  A    between atoms: C6_6  and  C7_8
REMARK    7  A    between atoms: C8_9  and  C9_10
REMARK    8  A    between atoms: C12_13  and  C13_14
REMARK    9  A    between atoms: C17_19  and  C18_20
REMARK   10  A    between atoms: C18_20  and  C19_21
REMARK                            x       y       z     vdW  Elec       q    Type
REMARK                         _______ _______ _______ _____ _____    ______ ____
ROOT
ATOM      1  C7  UNL     1       0.414   0.301   0.357  0.00  0.00    +0.000 C 
ATOM      2  C8  UNL     1       0.413   1.816   0.654  0.00  0.00    +0.000 C 
ATOM      3  C9  UNL     1      -0.745   2.380   1.457  0.00  0.00    +0.000 C 
ATOM      4  C10 UNL     1       0.611   2.479  -0.706  0.00  0.00    +0.000 C 
ATOM      5  C11 UNL     1       1.620   1.566  -1.389  0.00  0.00    +0.000 C 
ATOM      6  C12 UNL     1       1.183   0.149  -0.984  0.00  0.00    +0.000 C 
ENDROOT
BRANCH   6   7
ATOM      7  C13 UNL     1       2.292  -0.881  -1.060  0.00  0.00    +0.000 C 
ATOM      8  C14 UNL     1       2.322  -1.714  -2.182  0.00  0.00    +0.000 C 
ATOM      9  N1  UNL     1       3.228  -2.693  -2.408  0.00  0.00    +0.000 NA
ATOM     10  C15 UNL     1       4.183  -2.867  -1.479  0.00  0.00    +0.000 C 
ATOM     11  C16 UNL     1       4.270  -2.105  -0.332  0.00  0.00    +0.000 C 
ATOM     12  C17 UNL     1       3.314  -1.102  -0.124  0.00  0.00    +0.000 C 
BRANCH  12  13
ATOM     13  C18 UNL     1       3.483  -0.292   1.104  0.00  0.00    +0.000 C 
ATOM     14  C19 UNL     1       3.538  -1.020   2.421  0.00  0.00    +0.000 C 
ATOM     15  O2  UNL     1       3.603   0.925   1.024  0.00  0.00    +0.000 OA
ENDBRANCH  12  13
ENDBRANCH   6   7
BRANCH   1  16
ATOM     16  C6  UNL     1      -0.948  -0.409   0.330  0.00  0.00    +0.000 C 
ATOM     17  O1  UNL     1      -1.152  -1.338   1.118  0.00  0.00    +0.000 OA
BRANCH  16  18
ATOM     18  C5  UNL     1      -1.989  -0.018  -0.717  0.00  0.00    +0.000 C 
BRANCH  18  19
ATOM     19  C3  UNL     1      -3.397  -0.609  -0.490  0.00  0.00    +0.000 C 
ATOM     20  C4  UNL     1      -4.134  -0.662  -1.837  0.00  0.00    +0.000 C 
BRANCH  19  22
ATOM     21  C1  UNL     1      -3.842   0.044   1.961  0.00  0.00    +0.000 C 
ATOM     22  C2  UNL     1      -4.251   0.203   0.506  0.00  0.00    +0.000 C 
ENDBRANCH  19  22
ENDBRANCH  18  19
ENDBRANCH  16  18
ENDBRANCH   1  16
TORSDOF 6
