MODEL 1
REMARK VINA RESULT:    -6.846      0.000      0.000
REMARK INTER + INTRA:         -10.396
REMARK INTER:                  -9.048
REMARK INTRA:                  -1.348
REMARK UNBOUND:                -1.348
REMARK  Name = teste_hibrido_g3\Hibrido_G3_Top3.pdb
REMARK  11 active torsions:
REMARK  status: ('A' for Active; 'I' for Inactive)
REMARK    1  A    between atoms: C1_1  and  C2_2
REMARK    2  A    between atoms: C4_4  and  C5_5
REMARK    3  A    between atoms: N1_6  and  O1_7
REMARK    4  A    between atoms: C6_8  and  C7_9
REMARK    5  A    between atoms: C10_12  and  C11_13
REMARK    6  A    between atoms: C12_14  and  C13_15
REMARK    7  A    between atoms: C13_15  and  C14_17
REMARK    8  A    between atoms: C14_17  and  C15_18
REMARK    9  A    between atoms: C14_17  and  C16_19
REMARK   10  A    between atoms: C16_19  and  C17_20
REMARK   11  A    between atoms: C16_19  and  C18_21
REMARK                            x       y       z     vdW  Elec       q    Type
REMARK                         _______ _______ _______ _____ _____    ______ ____
ROOT
ATOM      1  C7  UNL     1       2.264   1.713  19.618  0.00  0.00    +0.000 C 
ATOM      2  C8  UNL     1       2.613   2.605  18.417  0.00  0.00    +0.000 C 
ATOM      3  C9  UNL     1       1.635   2.153  17.346  0.00  0.00    +0.000 C 
ATOM      4  C10 UNL     1       0.318   1.951  18.099  0.00  0.00    +0.000 C 
ATOM      5  C11 UNL     1      -0.503   3.239  18.164  0.00  0.00    +0.000 C 
ATOM      6  C12 UNL     1       0.733   1.477  19.511  0.00  0.00    +0.000 C 
ENDROOT
BRANCH   1  11
ATOM      7  C1  UNL     1       3.745   4.189  24.640  0.00  0.00    +0.000 C 
ATOM      8  C2  UNL     1       3.375   3.505  23.359  0.00  0.00    +0.000 C 
ATOM      9  C3  UNL     1       3.317   2.123  23.295  0.00  0.00    +0.000 C 
ATOM     10  C4  UNL     1       2.957   1.517  22.088  0.00  0.00    +0.000 C 
ATOM     11  C6  UNL     1       2.689   2.292  20.952  0.00  0.00    +0.000 C 
ATOM     12  C19 UNL     1       2.774   3.672  21.132  0.00  0.00    +0.000 C 
ATOM     13  N2  UNL     1       3.104   4.286  22.291  0.00  0.00    +0.000 NA
BRANCH  10  14
ATOM     14  C5  UNL     1       2.930   0.039  22.038  0.00  0.00    +0.000 C 
ATOM     15  N1  UNL     1       2.014  -0.759  22.502  0.00  0.00    +0.000 NA
BRANCH  15  16
ATOM     16  O1  UNL     1       0.911  -0.076  23.019  0.00  0.00    +0.000 OA
ATOM     17  H   UNL     1       0.936   0.857  23.106  0.00  0.00    +0.000 HD
ENDBRANCH  15  16
ENDBRANCH  10  14
ENDBRANCH   1  11
BRANCH   6  18
ATOM     18  C13 UNL     1       0.366   0.001  19.667  0.00  0.00    +0.000 C 
ATOM     19  O2  UNL     1      -0.584  -0.356  20.368  0.00  0.00    +0.000 OA
BRANCH  18  20
ATOM     20  C14 UNL     1       1.276  -1.018  18.973  0.00  0.00    +0.000 C 
ATOM     21  C15 UNL     1       1.251  -2.333  19.755  0.00  0.00    +0.000 C 
BRANCH  20  22
ATOM     22  C16 UNL     1       0.943  -1.209  17.475  0.00  0.00    +0.000 C 
ATOM     23  C17 UNL     1      -0.114  -2.295  17.263  0.00  0.00    +0.000 C 
ATOM     24  C18 UNL     1       2.159  -1.490  16.588  0.00  0.00    +0.000 C 
ENDBRANCH  20  22
ENDBRANCH  18  20
ENDBRANCH   6  18
TORSDOF 6
ENDMDL
MODEL 2
REMARK VINA RESULT:    -6.738      1.710      2.288
REMARK INTER + INTRA:         -10.252
REMARK INTER:                  -8.707
REMARK INTRA:                  -1.545
REMARK UNBOUND:                -1.348
REMARK  Name = teste_hibrido_g3\Hibrido_G3_Top3.pdb
REMARK  11 active torsions:
REMARK  status: ('A' for Active; 'I' for Inactive)
REMARK    1  A    between atoms: C1_1  and  C2_2
REMARK    2  A    between atoms: C4_4  and  C5_5
REMARK    3  A    between atoms: N1_6  and  O1_7
REMARK    4  A    between atoms: C6_8  and  C7_9
REMARK    5  A    between atoms: C10_12  and  C11_13
REMARK    6  A    between atoms: C12_14  and  C13_15
REMARK    7  A    between atoms: C13_15  and  C14_17
REMARK    8  A    between atoms: C14_17  and  C15_18
REMARK    9  A    between atoms: C14_17  and  C16_19
REMARK   10  A    between atoms: C16_19  and  C17_20
REMARK   11  A    between atoms: C16_19  and  C18_21
REMARK                            x       y       z     vdW  Elec       q    Type
REMARK                         _______ _______ _______ _____ _____    ______ ____
ROOT
ATOM      1  C7  UNL     1       2.264   1.056  19.132  0.00  0.00    +0.000 C 
ATOM      2  C8  UNL     1       2.480   1.020  17.611  0.00  0.00    +0.000 C 
ATOM      3  C9  UNL     1       1.711  -0.216  17.174  0.00  0.00    +0.000 C 
ATOM      4  C10 UNL     1       0.427  -0.173  18.005  0.00  0.00    +0.000 C 
ATOM      5  C11 UNL     1      -0.672   0.635  17.314  0.00  0.00    +0.000 C 
ATOM      6  C12 UNL     1       0.840   0.475  19.347  0.00  0.00    +0.000 C 
ENDROOT
BRANCH   1  11
ATOM      7  C1  UNL     1       2.722   6.402  21.312  0.00  0.00    +0.000 C 
ATOM      8  C2  UNL     1       2.636   5.002  20.781  0.00  0.00    +0.000 C 
ATOM      9  C3  UNL     1       3.211   3.953  21.477  0.00  0.00    +0.000 C 
ATOM     10  C4  UNL     1       3.103   2.659  20.960  0.00  0.00    +0.000 C 
ATOM     11  C6  UNL     1       2.449   2.429  19.742  0.00  0.00    +0.000 C 
ATOM     12  C19 UNL     1       1.905   3.558  19.130  0.00  0.00    +0.000 C 
ATOM     13  N2  UNL     1       1.981   4.818  19.615  0.00  0.00    +0.000 NA
BRANCH  10  14
ATOM     14  C5  UNL     1       3.750   1.560  21.707  0.00  0.00    +0.000 C 
ATOM     15  N1  UNL     1       3.277   0.895  22.719  0.00  0.00    +0.000 NA
BRANCH  15  16
ATOM     16  O1  UNL     1       1.963   1.248  23.034  0.00  0.00    +0.000 OA
ATOM     17  H   UNL     1       1.332   1.366  22.350  0.00  0.00    +0.000 HD
ENDBRANCH  15  16
ENDBRANCH  10  14
ENDBRANCH   1  11
BRANCH   6  18
ATOM     18  C13 UNL     1       0.814  -0.593  20.443  0.00  0.00    +0.000 C 
ATOM     19  O2  UNL     1       0.037  -0.516  21.397  0.00  0.00    +0.000 OA
BRANCH  18  20
ATOM     20  C14 UNL     1       1.846  -1.720  20.338  0.00  0.00    +0.000 C 
ATOM     21  C15 UNL     1       2.174  -2.236  21.741  0.00  0.00    +0.000 C 
BRANCH  20  22
ATOM     22  C16 UNL     1       1.416  -2.849  19.374  0.00  0.00    +0.000 C 
ATOM     23  C17 UNL     1       0.298  -3.708  19.969  0.00  0.00    +0.000 C 
ATOM     24  C18 UNL     1       2.563  -3.748  18.902  0.00  0.00    +0.000 C 
ENDBRANCH  20  22
ENDBRANCH  18  20
ENDBRANCH   6  18
TORSDOF 6
ENDMDL
MODEL 3
REMARK VINA RESULT:    -6.725      2.294      5.850
REMARK INTER + INTRA:         -10.235
REMARK INTER:                  -8.611
REMARK INTRA:                  -1.624
REMARK UNBOUND:                -1.348
REMARK  Name = teste_hibrido_g3\Hibrido_G3_Top3.pdb
REMARK  11 active torsions:
REMARK  status: ('A' for Active; 'I' for Inactive)
REMARK    1  A    between atoms: C1_1  and  C2_2
REMARK    2  A    between atoms: C4_4  and  C5_5
REMARK    3  A    between atoms: N1_6  and  O1_7
REMARK    4  A    between atoms: C6_8  and  C7_9
REMARK    5  A    between atoms: C10_12  and  C11_13
REMARK    6  A    between atoms: C12_14  and  C13_15
REMARK    7  A    between atoms: C13_15  and  C14_17
REMARK    8  A    between atoms: C14_17  and  C15_18
REMARK    9  A    between atoms: C14_17  and  C16_19
REMARK   10  A    between atoms: C16_19  and  C17_20
REMARK   11  A    between atoms: C16_19  and  C18_21
REMARK                            x       y       z     vdW  Elec       q    Type
REMARK                         _______ _______ _______ _____ _____    ______ ____
ROOT
ATOM      1  C7  UNL     1       0.470  -0.069  19.915  0.00  0.00    +0.000 C 
ATOM      2  C8  UNL     1      -0.585   0.820  19.239  0.00  0.00    +0.000 C 
ATOM      3  C9  UNL     1      -0.520   2.112  20.036  0.00  0.00    +0.000 C 
ATOM      4  C10 UNL     1       0.975   2.332  20.275  0.00  0.00    +0.000 C 
ATOM      5  C11 UNL     1       1.624   3.119  19.135  0.00  0.00    +0.000 C 
ATOM      6  C12 UNL     1       1.575   0.912  20.391  0.00  0.00    +0.000 C 
ENDROOT
BRANCH   1  11
ATOM      7  C1  UNL     1       2.696  -4.112  16.417  0.00  0.00    +0.000 C 
ATOM      8  C2  UNL     1       2.093  -3.100  17.344  0.00  0.00    +0.000 C 
ATOM      9  C3  UNL     1       1.342  -3.510  18.433  0.00  0.00    +0.000 C 
ATOM     10  C4  UNL     1       0.803  -2.540  19.285  0.00  0.00    +0.000 C 
ATOM     11  C6  UNL     1       0.994  -1.176  19.025  0.00  0.00    +0.000 C 
ATOM     12  C19 UNL     1       1.769  -0.881  17.904  0.00  0.00    +0.000 C 
ATOM     13  N2  UNL     1       2.315  -1.797  17.073  0.00  0.00    +0.000 NA
BRANCH  10  14
ATOM     14  C5  UNL     1      -0.018  -3.002  20.423  0.00  0.00    +0.000 C 
ATOM     15  N1  UNL     1       0.369  -3.247  21.640  0.00  0.00    +0.000 NA
BRANCH  15  16
ATOM     16  O1  UNL     1       1.713  -2.935  21.855  0.00  0.00    +0.000 OA
ATOM     17  H   UNL     1       2.017  -2.057  21.726  0.00  0.00    +0.000 HD
ENDBRANCH  15  16
ENDBRANCH  10  14
ENDBRANCH   1  11
BRANCH   6  18
ATOM     18  C13 UNL     1       1.981   0.661  21.844  0.00  0.00    +0.000 C 
ATOM     19  O2  UNL     1       1.287  -0.026  22.596  0.00  0.00    +0.000 OA
BRANCH  18  20
ATOM     20  C14 UNL     1       3.248   1.363  22.342  0.00  0.00    +0.000 C 
ATOM     21  C15 UNL     1       4.171   1.643  21.154  0.00  0.00    +0.000 C 
BRANCH  20  22
ATOM     22  C16 UNL     1       2.951   2.631  23.177  0.00  0.00    +0.000 C 
ATOM     23  C17 UNL     1       3.729   3.844  22.662  0.00  0.00    +0.000 C 
ATOM     24  C18 UNL     1       3.187   2.466  24.681  0.00  0.00    +0.000 C 
ENDBRANCH  20  22
ENDBRANCH  18  20
ENDBRANCH   6  18
TORSDOF 6
ENDMDL
MODEL 4
REMARK VINA RESULT:    -6.599      2.226      3.830
REMARK INTER + INTRA:         -10.069
REMARK INTER:                  -8.253
REMARK INTRA:                  -1.816
REMARK UNBOUND:                -1.348
REMARK  Name = teste_hibrido_g3\Hibrido_G3_Top3.pdb
REMARK  11 active torsions:
REMARK  status: ('A' for Active; 'I' for Inactive)
REMARK    1  A    between atoms: C1_1  and  C2_2
REMARK    2  A    between atoms: C4_4  and  C5_5
REMARK    3  A    between atoms: N1_6  and  O1_7
REMARK    4  A    between atoms: C6_8  and  C7_9
REMARK    5  A    between atoms: C10_12  and  C11_13
REMARK    6  A    between atoms: C12_14  and  C13_15
REMARK    7  A    between atoms: C13_15  and  C14_17
REMARK    8  A    between atoms: C14_17  and  C15_18
REMARK    9  A    between atoms: C14_17  and  C16_19
REMARK   10  A    between atoms: C16_19  and  C17_20
REMARK   11  A    between atoms: C16_19  and  C18_21
REMARK                            x       y       z     vdW  Elec       q    Type
REMARK                         _______ _______ _______ _____ _____    ______ ____
ROOT
ATOM      1  C7  UNL     1       0.545   0.201  19.738  0.00  0.00    +0.000 C 
ATOM      2  C8  UNL     1      -0.813  -0.215  20.324  0.00  0.00    +0.000 C 
ATOM      3  C9  UNL     1      -1.175  -1.457  19.527  0.00  0.00    +0.000 C 
ATOM      4  C10 UNL     1       0.143  -2.223  19.405  0.00  0.00    +0.000 C 
ATOM      5  C11 UNL     1       0.365  -3.167  20.588  0.00  0.00    +0.000 C 
ATOM      6  C12 UNL     1       1.237  -1.132  19.345  0.00  0.00    +0.000 C 
ENDROOT
BRANCH   1  11
ATOM      7  C1  UNL     1       3.849   3.208  23.424  0.00  0.00    +0.000 C 
ATOM      8  C2  UNL     1       2.983   2.471  22.446  0.00  0.00    +0.000 C 
ATOM      9  C3  UNL     1       2.525   3.104  21.303  0.00  0.00    +0.000 C 
ATOM     10  C4  UNL     1       1.729   2.385  20.406  0.00  0.00    +0.000 C 
ATOM     11  C6  UNL     1       1.376   1.055  20.673  0.00  0.00    +0.000 C 
ATOM     12  C19 UNL     1       1.897   0.520  21.850  0.00  0.00    +0.000 C 
ATOM     13  N2  UNL     1       2.681   1.186  22.727  0.00  0.00    +0.000 NA
BRANCH  10  14
ATOM     14  C5  UNL     1       1.228   3.091  19.208  0.00  0.00    +0.000 C 
ATOM     15  N1  UNL     1       1.830   3.253  18.067  0.00  0.00    +0.000 NA
BRANCH  15  16
ATOM     16  O1  UNL     1       3.054   2.584  17.999  0.00  0.00    +0.000 OA
ATOM     17  H   UNL     1       3.193   1.808  18.507  0.00  0.00    +0.000 HD
ENDBRANCH  15  16
ENDBRANCH  10  14
ENDBRANCH   1  11
BRANCH   6  18
ATOM     18  C13 UNL     1       1.814  -1.085  17.930  0.00  0.00    +0.000 C 
ATOM     19  O2  UNL     1       2.428  -0.099  17.518  0.00  0.00    +0.000 OA
BRANCH  18  20
ATOM     20  C14 UNL     1       1.531  -2.288  17.024  0.00  0.00    +0.000 C 
ATOM     21  C15 UNL     1       0.943  -1.796  15.700  0.00  0.00    +0.000 C 
BRANCH  20  22
ATOM     22  C16 UNL     1       2.763  -3.202  16.826  0.00  0.00    +0.000 C 
ATOM     23  C17 UNL     1       2.601  -4.115  15.609  0.00  0.00    +0.000 C 
ATOM     24  C18 UNL     1       3.133  -4.038  18.054  0.00  0.00    +0.000 C 
ENDBRANCH  20  22
ENDBRANCH  18  20
ENDBRANCH   6  18
TORSDOF 6
ENDMDL
MODEL 5
REMARK VINA RESULT:    -6.584     24.318     27.086
REMARK INTER + INTRA:         -10.049
REMARK INTER:                  -8.415
REMARK INTRA:                  -1.635
REMARK UNBOUND:                -1.348
REMARK  Name = teste_hibrido_g3\Hibrido_G3_Top3.pdb
REMARK  11 active torsions:
REMARK  status: ('A' for Active; 'I' for Inactive)
REMARK    1  A    between atoms: C1_1  and  C2_2
REMARK    2  A    between atoms: C4_4  and  C5_5
REMARK    3  A    between atoms: N1_6  and  O1_7
REMARK    4  A    between atoms: C6_8  and  C7_9
REMARK    5  A    between atoms: C10_12  and  C11_13
REMARK    6  A    between atoms: C12_14  and  C13_15
REMARK    7  A    between atoms: C13_15  and  C14_17
REMARK    8  A    between atoms: C14_17  and  C15_18
REMARK    9  A    between atoms: C14_17  and  C16_19
REMARK   10  A    between atoms: C16_19  and  C17_20
REMARK   11  A    between atoms: C16_19  and  C18_21
REMARK                            x       y       z     vdW  Elec       q    Type
REMARK                         _______ _______ _______ _____ _____    ______ ____
ROOT
ATOM      1  C7  UNL     1      21.918  20.044  17.677  0.00  0.00    +0.000 C 
ATOM      2  C8  UNL     1      23.187  20.103  16.814  0.00  0.00    +0.000 C 
ATOM      3  C9  UNL     1      24.295  20.321  17.830  0.00  0.00    +0.000 C 
ATOM      4  C10 UNL     1      23.917  19.410  19.000  0.00  0.00    +0.000 C 
ATOM      5  C11 UNL     1      24.485  18.000  18.831  0.00  0.00    +0.000 C 
ATOM      6  C12 UNL     1      22.372  19.395  19.013  0.00  0.00    +0.000 C 
ENDROOT
BRANCH   1  11
ATOM      7  C1  UNL     1      17.591  17.007  15.312  0.00  0.00    +0.000 C 
ATOM      8  C2  UNL     1      18.690  17.834  15.908  0.00  0.00    +0.000 C 
ATOM      9  C3  UNL     1      18.572  19.213  15.972  0.00  0.00    +0.000 C 
ATOM     10  C4  UNL     1      19.610  19.954  16.544  0.00  0.00    +0.000 C 
ATOM     11  C6  UNL     1      20.765  19.316  17.018  0.00  0.00    +0.000 C 
ATOM     12  C19 UNL     1      20.773  17.927  16.905  0.00  0.00    +0.000 C 
ATOM     13  N2  UNL     1      19.778  17.184  16.371  0.00  0.00    +0.000 NA
BRANCH  10  14
ATOM     14  C5  UNL     1      19.473  21.425  16.575  0.00  0.00    +0.000 C 
ATOM     15  N1  UNL     1      18.843  22.150  17.452  0.00  0.00    +0.000 NA
BRANCH  15  16
ATOM     16  O1  UNL     1      18.332  21.398  18.511  0.00  0.00    +0.000 OA
ATOM     17  H   UNL     1      17.470  21.572  18.837  0.00  0.00    +0.000 HD
ENDBRANCH  15  16
ENDBRANCH  10  14
ENDBRANCH   1  11
BRANCH   6  18
ATOM     18  C13 UNL     1      21.877  20.178  20.230  0.00  0.00    +0.000 C 
ATOM     19  O2  UNL     1      22.115  21.380  20.362  0.00  0.00    +0.000 OA
BRANCH  18  20
ATOM     20  C14 UNL     1      21.138  19.384  21.312  0.00  0.00    +0.000 C 
ATOM     21  C15 UNL     1      19.677  19.837  21.362  0.00  0.00    +0.000 C 
BRANCH  20  22
ATOM     22  C16 UNL     1      21.282  17.853  21.147  0.00  0.00    +0.000 C 
ATOM     23  C17 UNL     1      19.925  17.147  21.200  0.00  0.00    +0.000 C 
ATOM     24  C18 UNL     1      22.244  17.199  22.142  0.00  0.00    +0.000 C 
ENDBRANCH  20  22
ENDBRANCH  18  20
ENDBRANCH   6  18
TORSDOF 6
ENDMDL
MODEL 6
REMARK VINA RESULT:    -6.566      1.484      2.103
REMARK INTER + INTRA:         -10.025
REMARK INTER:                  -8.943
REMARK INTRA:                  -1.082
REMARK UNBOUND:                -1.348
REMARK  Name = teste_hibrido_g3\Hibrido_G3_Top3.pdb
REMARK  11 active torsions:
REMARK  status: ('A' for Active; 'I' for Inactive)
REMARK    1  A    between atoms: C1_1  and  C2_2
REMARK    2  A    between atoms: C4_4  and  C5_5
REMARK    3  A    between atoms: N1_6  and  O1_7
REMARK    4  A    between atoms: C6_8  and  C7_9
REMARK    5  A    between atoms: C10_12  and  C11_13
REMARK    6  A    between atoms: C12_14  and  C13_15
REMARK    7  A    between atoms: C13_15  and  C14_17
REMARK    8  A    between atoms: C14_17  and  C15_18
REMARK    9  A    between atoms: C14_17  and  C16_19
REMARK   10  A    between atoms: C16_19  and  C17_20
REMARK   11  A    between atoms: C16_19  and  C18_21
REMARK                            x       y       z     vdW  Elec       q    Type
REMARK                         _______ _______ _______ _____ _____    ______ ____
ROOT
ATOM      1  C7  UNL     1       2.024   1.911  19.559  0.00  0.00    +0.000 C 
ATOM      2  C8  UNL     1       2.309   2.868  18.392  0.00  0.00    +0.000 C 
ATOM      3  C9  UNL     1       1.277   2.471  17.350  0.00  0.00    +0.000 C 
ATOM      4  C10 UNL     1       0.002   2.224  18.157  0.00  0.00    +0.000 C 
ATOM      5  C11 UNL     1      -0.817   3.504  18.336  0.00  0.00    +0.000 C 
ATOM      6  C12 UNL     1       0.489   1.676  19.518  0.00  0.00    +0.000 C 
ENDROOT
BRANCH   1  11
ATOM      7  C1  UNL     1       3.754   4.110  24.630  0.00  0.00    +0.000 C 
ATOM      8  C2  UNL     1       3.321   3.497  23.332  0.00  0.00    +0.000 C 
ATOM      9  C3  UNL     1       3.301   2.120  23.181  0.00  0.00    +0.000 C 
ATOM     10  C4  UNL     1       2.882   1.581  21.961  0.00  0.00    +0.000 C 
ATOM     11  C6  UNL     1       2.517   2.418  20.898  0.00  0.00    +0.000 C 
ATOM     12  C19 UNL     1       2.572   3.785  21.164  0.00  0.00    +0.000 C 
ATOM     13  N2  UNL     1       2.958   4.334  22.338  0.00  0.00    +0.000 NA
BRANCH  10  14
ATOM     14  C5  UNL     1       2.896   0.110  21.816  0.00  0.00    +0.000 C 
ATOM     15  N1  UNL     1       2.077  -0.753  22.340  0.00  0.00    +0.000 NA
BRANCH  15  16
ATOM     16  O1  UNL     1       1.031  -0.150  23.042  0.00  0.00    +0.000 OA
ATOM     17  H   UNL     1       0.996   0.784  23.120  0.00  0.00    +0.000 HD
ENDBRANCH  15  16
ENDBRANCH  10  14
ENDBRANCH   1  11
BRANCH   6  18
ATOM     18  C13 UNL     1       0.132   0.191  19.612  0.00  0.00    +0.000 C 
ATOM     19  O2  UNL     1       0.744  -0.660  18.964  0.00  0.00    +0.000 OA
BRANCH  18  20
ATOM     20  C14 UNL     1      -1.068  -0.180  20.490  0.00  0.00    +0.000 C 
ATOM     21  C15 UNL     1      -2.222   0.782  20.201  0.00  0.00    +0.000 C 
BRANCH  20  22
ATOM     22  C16 UNL     1      -1.482  -1.664  20.356  0.00  0.00    +0.000 C 
ATOM     23  C17 UNL     1      -3.003  -1.830  20.351  0.00  0.00    +0.000 C 
ATOM     24  C18 UNL     1      -0.864  -2.589  21.408  0.00  0.00    +0.000 C 
ENDBRANCH  20  22
ENDBRANCH  18  20
ENDBRANCH   6  18
TORSDOF 6
ENDMDL
MODEL 7
REMARK VINA RESULT:    -6.558     24.707     27.161
REMARK INTER + INTRA:         -10.014
REMARK INTER:                  -8.431
REMARK INTRA:                  -1.583
REMARK UNBOUND:                -1.348
REMARK  Name = teste_hibrido_g3\Hibrido_G3_Top3.pdb
REMARK  11 active torsions:
REMARK  status: ('A' for Active; 'I' for Inactive)
REMARK    1  A    between atoms: C1_1  and  C2_2
REMARK    2  A    between atoms: C4_4  and  C5_5
REMARK    3  A    between atoms: N1_6  and  O1_7
REMARK    4  A    between atoms: C6_8  and  C7_9
REMARK    5  A    between atoms: C10_12  and  C11_13
REMARK    6  A    between atoms: C12_14  and  C13_15
REMARK    7  A    between atoms: C13_15  and  C14_17
REMARK    8  A    between atoms: C14_17  and  C15_18
REMARK    9  A    between atoms: C14_17  and  C16_19
REMARK   10  A    between atoms: C16_19  and  C17_20
REMARK   11  A    between atoms: C16_19  and  C18_21
REMARK                            x       y       z     vdW  Elec       q    Type
REMARK                         _______ _______ _______ _____ _____    ______ ____
ROOT
ATOM      1  C7  UNL     1      17.381  -7.960   2.369  0.00  0.00    +0.000 C 
ATOM      2  C8  UNL     1      16.236  -8.036   3.390  0.00  0.00    +0.000 C 
ATOM      3  C9  UNL     1      14.989  -8.066   2.521  0.00  0.00    +0.000 C 
ATOM      4  C10 UNL     1      15.362  -8.990   1.360  0.00  0.00    +0.000 C 
ATOM      5  C11 UNL     1      15.056 -10.454   1.676  0.00  0.00    +0.000 C 
ATOM      6  C12 UNL     1      16.876  -8.767   1.141  0.00  0.00    +0.000 C 
ENDROOT
BRANCH   1  11
ATOM      7  C1  UNL     1      22.369 -10.129   4.356  0.00  0.00    +0.000 C 
ATOM      8  C2  UNL     1      21.099  -9.523   3.841  0.00  0.00    +0.000 C 
ATOM      9  C3  UNL     1      21.078  -8.211   3.399  0.00  0.00    +0.000 C 
ATOM     10  C4  UNL     1      19.879  -7.680   2.915  0.00  0.00    +0.000 C 
ATOM     11  C6  UNL     1      18.709  -8.452   2.905  0.00  0.00    +0.000 C 
ATOM     12  C19 UNL     1      18.848  -9.759   3.370  0.00  0.00    +0.000 C 
ATOM     13  N2  UNL     1      19.997 -10.303   3.829  0.00  0.00    +0.000 NA
BRANCH  10  14
ATOM     14  C5  UNL     1      19.876  -6.269   2.475  0.00  0.00    +0.000 C 
ATOM     15  N1  UNL     1      20.086  -5.805   1.278  0.00  0.00    +0.000 NA
BRANCH  15  16
ATOM     16  O1  UNL     1      20.240  -6.814   0.325  0.00  0.00    +0.000 OA
ATOM     17  H   UNL     1      19.486  -7.183  -0.094  0.00  0.00    +0.000 HD
ENDBRANCH  15  16
ENDBRANCH  10  14
ENDBRANCH   1  11
BRANCH   6  18
ATOM     18  C13 UNL     1      17.083  -8.007  -0.171  0.00  0.00    +0.000 C 
ATOM     19  O2  UNL     1      16.695  -6.845  -0.309  0.00  0.00    +0.000 OA
BRANCH  18  20
ATOM     20  C14 UNL     1      17.725  -8.781  -1.327  0.00  0.00    +0.000 C 
ATOM     21  C15 UNL     1      17.948 -10.233  -0.901  0.00  0.00    +0.000 C 
BRANCH  20  22
ATOM     22  C16 UNL     1      16.933  -8.663  -2.650  0.00  0.00    +0.000 C 
ATOM     23  C17 UNL     1      16.033  -9.879  -2.882  0.00  0.00    +0.000 C 
ATOM     24  C18 UNL     1      17.803  -8.420  -3.886  0.00  0.00    +0.000 C 
ENDBRANCH  20  22
ENDBRANCH  18  20
ENDBRANCH   6  18
TORSDOF 6
ENDMDL
MODEL 8
REMARK VINA RESULT:    -6.398     22.375     25.191
REMARK INTER + INTRA:          -9.803
REMARK INTER:                  -8.268
REMARK INTRA:                  -1.535
REMARK UNBOUND:                -1.348
REMARK  Name = teste_hibrido_g3\Hibrido_G3_Top3.pdb
REMARK  11 active torsions:
REMARK  status: ('A' for Active; 'I' for Inactive)
REMARK    1  A    between atoms: C1_1  and  C2_2
REMARK    2  A    between atoms: C4_4  and  C5_5
REMARK    3  A    between atoms: N1_6  and  O1_7
REMARK    4  A    between atoms: C6_8  and  C7_9
REMARK    5  A    between atoms: C10_12  and  C11_13
REMARK    6  A    between atoms: C12_14  and  C13_15
REMARK    7  A    between atoms: C13_15  and  C14_17
REMARK    8  A    between atoms: C14_17  and  C15_18
REMARK    9  A    between atoms: C14_17  and  C16_19
REMARK   10  A    between atoms: C16_19  and  C17_20
REMARK   11  A    between atoms: C16_19  and  C18_21
REMARK                            x       y       z     vdW  Elec       q    Type
REMARK                         _______ _______ _______ _____ _____    ______ ____
ROOT
ATOM      1  C7  UNL     1      17.606  -5.078   1.447  0.00  0.00    +0.000 C 
ATOM      2  C8  UNL     1      17.525  -4.500   0.026  0.00  0.00    +0.000 C 
ATOM      3  C9  UNL     1      18.762  -5.063  -0.655  0.00  0.00    +0.000 C 
ATOM      4  C10 UNL     1      18.837  -6.509  -0.162  0.00  0.00    +0.000 C 
ATOM      5  C11 UNL     1      18.035  -7.457  -1.055  0.00  0.00    +0.000 C 
ATOM      6  C12 UNL     1      18.267  -6.473   1.274  0.00  0.00    +0.000 C 
ENDROOT
BRANCH   1  11
ATOM      7  C1  UNL     1      12.523  -5.587   4.174  0.00  0.00    +0.000 C 
ATOM      8  C2  UNL     1      13.839  -5.407   3.479  0.00  0.00    +0.000 C 
ATOM      9  C3  UNL     1      14.550  -4.227   3.621  0.00  0.00    +0.000 C 
ATOM     10  C4  UNL     1      15.780  -4.097   2.969  0.00  0.00    +0.000 C 
ATOM     11  C6  UNL     1      16.271  -5.131   2.160  0.00  0.00    +0.000 C 
ATOM     12  C19 UNL     1      15.474  -6.272   2.093  0.00  0.00    +0.000 C 
ATOM     13  N2  UNL     1      14.289  -6.432   2.725  0.00  0.00    +0.000 NA
BRANCH  10  14
ATOM     14  C5  UNL     1      16.506  -2.818   3.113  0.00  0.00    +0.000 C 
ATOM     15  N1  UNL     1      16.358  -1.732   2.414  0.00  0.00    +0.000 NA
BRANCH  15  16
ATOM     16  O1  UNL     1      15.314  -1.820   1.490  0.00  0.00    +0.000 OA
ATOM     17  H   UNL     1      15.003  -2.660   1.213  0.00  0.00    +0.000 HD
ENDBRANCH  15  16
ENDBRANCH  10  14
ENDBRANCH   1  11
BRANCH   6  18
ATOM     18  C13 UNL     1      19.408  -6.696   2.268  0.00  0.00    +0.000 C 
ATOM     19  O2  UNL     1      20.119  -5.764   2.651  0.00  0.00    +0.000 OA
BRANCH  18  20
ATOM     20  C14 UNL     1      19.674  -8.139   2.707  0.00  0.00    +0.000 C 
ATOM     21  C15 UNL     1      20.263  -8.138   4.119  0.00  0.00    +0.000 C 
BRANCH  20  22
ATOM     22  C16 UNL     1      18.430  -9.050   2.582  0.00  0.00    +0.000 C 
ATOM     23  C17 UNL     1      17.518  -8.937   3.805  0.00  0.00    +0.000 C 
ATOM     24  C18 UNL     1      18.751 -10.523   2.311  0.00  0.00    +0.000 C 
ENDBRANCH  20  22
ENDBRANCH  18  20
ENDBRANCH   6  18
TORSDOF 6
ENDMDL
MODEL 9
REMARK VINA RESULT:    -6.264      2.463      4.541
REMARK INTER + INTRA:          -9.626
REMARK INTER:                  -7.883
REMARK INTRA:                  -1.743
REMARK UNBOUND:                -1.348
REMARK  Name = teste_hibrido_g3\Hibrido_G3_Top3.pdb
REMARK  11 active torsions:
REMARK  status: ('A' for Active; 'I' for Inactive)
REMARK    1  A    between atoms: C1_1  and  C2_2
REMARK    2  A    between atoms: C4_4  and  C5_5
REMARK    3  A    between atoms: N1_6  and  O1_7
REMARK    4  A    between atoms: C6_8  and  C7_9
REMARK    5  A    between atoms: C10_12  and  C11_13
REMARK    6  A    between atoms: C12_14  and  C13_15
REMARK    7  A    between atoms: C13_15  and  C14_17
REMARK    8  A    between atoms: C14_17  and  C15_18
REMARK    9  A    between atoms: C14_17  and  C16_19
REMARK   10  A    between atoms: C16_19  and  C17_20
REMARK   11  A    between atoms: C16_19  and  C18_21
REMARK                            x       y       z     vdW  Elec       q    Type
REMARK                         _______ _______ _______ _____ _____    ______ ____
ROOT
ATOM      1  C7  UNL     1       0.167  -1.016  18.783  0.00  0.00    +0.000 C 
ATOM      2  C8  UNL     1      -0.958  -1.804  19.472  0.00  0.00    +0.000 C 
ATOM      3  C9  UNL     1      -1.328  -2.860  18.444  0.00  0.00    +0.000 C 
ATOM      4  C10 UNL     1       0.016  -3.318  17.874  0.00  0.00    +0.000 C 
ATOM      5  C11 UNL     1       0.619  -4.464  18.688  0.00  0.00    +0.000 C 
ATOM      6  C12 UNL     1       0.918  -2.063  17.917  0.00  0.00    +0.000 C 
ENDROOT
BRANCH   1  11
ATOM      7  C1  UNL     1       3.726   1.537  22.573  0.00  0.00    +0.000 C 
ATOM      8  C2  UNL     1       2.799   0.920  21.569  0.00  0.00    +0.000 C 
ATOM      9  C3  UNL     1       2.412   1.629  20.445  0.00  0.00    +0.000 C 
ATOM     10  C4  UNL     1       1.556   1.019  19.523  0.00  0.00    +0.000 C 
ATOM     11  C6  UNL     1       1.072  -0.277  19.747  0.00  0.00    +0.000 C 
ATOM     12  C19 UNL     1       1.530  -0.897  20.909  0.00  0.00    +0.000 C 
ATOM     13  N2  UNL     1       2.370  -0.337  21.809  0.00  0.00    +0.000 NA
BRANCH  10  14
ATOM     14  C5  UNL     1       1.135   1.807  18.345  0.00  0.00    +0.000 C 
ATOM     15  N1  UNL     1       1.795   2.012  17.244  0.00  0.00    +0.000 NA
BRANCH  15  16
ATOM     16  O1  UNL     1       2.999   1.307  17.194  0.00  0.00    +0.000 OA
ATOM     17  H   UNL     1       3.814   1.769  17.216  0.00  0.00    +0.000 HD
ENDBRANCH  15  16
ENDBRANCH  10  14
ENDBRANCH   1  11
BRANCH   6  18
ATOM     18  C13 UNL     1       1.149  -1.569  16.488  0.00  0.00    +0.000 C 
ATOM     19  O2  UNL     1       0.280  -0.945  15.874  0.00  0.00    +0.000 OA
BRANCH  18  20
ATOM     20  C14 UNL     1       2.479  -1.948  15.829  0.00  0.00    +0.000 C 
ATOM     21  C15 UNL     1       3.385  -2.614  16.866  0.00  0.00    +0.000 C 
BRANCH  20  22
ATOM     22  C16 UNL     1       2.302  -2.805  14.554  0.00  0.00    +0.000 C 
ATOM     23  C17 UNL     1       2.060  -4.278  14.890  0.00  0.00    +0.000 C 
ATOM     24  C18 UNL     1       3.451  -2.686  13.548  0.00  0.00    +0.000 C 
ENDBRANCH  20  22
ENDBRANCH  18  20
ENDBRANCH   6  18
TORSDOF 6
ENDMDL
