REMARK  Name = teste_hibrido_g3\Hibrido_G3_Top3.pdb
REMARK  11 active torsions:
REMARK  status: ('A' for Active; 'I' for Inactive)
REMARK    1  A    between atoms: C1_1  and  C2_2
REMARK    2  A    between atoms: C4_4  and  C5_5
REMARK    3  A    between atoms: N1_6  and  O1_7
REMARK    4  A    between atoms: C6_8  and  C7_9
REMARK    5  A    between atoms: C10_12  and  C11_13
REMARK    6  A    between atoms: C12_14  and  C13_15
REMARK    7  A    between atoms: C13_15  and  C14_17
REMARK    8  A    between atoms: C14_17  and  C15_18
REMARK    9  A    between atoms: C14_17  and  C16_19
REMARK   10  A    between atoms: C16_19  and  C17_20
REMARK   11  A    between atoms: C16_19  and  C18_21
REMARK                            x       y       z     vdW  Elec       q    Type
REMARK                         _______ _______ _______ _____ _____    ______ ____
ROOT
ATOM      1  C7  UNL     1       1.040  -1.000  -0.867  0.00  0.00    +0.000 C 
ATOM      2  C8  UNL     1       1.539  -1.655  -2.164  0.00  0.00    +0.000 C 
ATOM      3  C9  UNL     1       0.380  -2.546  -2.578  0.00  0.00    +0.000 C 
ATOM      4  C10 UNL     1      -0.864  -1.702  -2.293  0.00  0.00    +0.000 C 
ATOM      5  C11 UNL     1      -1.242  -0.824  -3.487  0.00  0.00    +0.000 C 
ATOM      6  C12 UNL     1      -0.493  -0.845  -1.061  0.00  0.00    +0.000 C 
ENDROOT
BRANCH   1  11
ATOM      7  C1  UNL     1       3.529   4.121   0.192  0.00  0.00    +0.000 C 
ATOM      8  C2  UNL     1       2.905   2.778  -0.041  0.00  0.00    +0.000 C 
ATOM      9  C3  UNL     1       2.930   1.813   0.952  0.00  0.00    +0.000 C 
ATOM     10  C4  UNL     1       2.329   0.575   0.706  0.00  0.00    +0.000 C 
ATOM     11  C6  UNL     1       1.737   0.303  -0.535  0.00  0.00    +0.000 C 
ATOM     12  C19 UNL     1       1.767   1.348  -1.457  0.00  0.00    +0.000 C 
ATOM     13  N2  UNL     1       2.327   2.560  -1.241  0.00  0.00    +0.000 NA
BRANCH  10  14
ATOM     14  C5  UNL     1       2.394  -0.448   1.771  0.00  0.00    +0.000 C 
ATOM     15  N1  UNL     1       2.086  -0.314   3.027  0.00  0.00    +0.000 NA
BRANCH  15  16
ATOM     16  O1  UNL     1       1.555   0.943   3.324  0.00  0.00    +0.000 OA
ATOM     17  H   UNL     1       1.298   1.148   4.202  0.00  0.00    +0.000 HD
ENDBRANCH  15  16
ENDBRANCH  10  14
ENDBRANCH   1  11
BRANCH   6  18
ATOM     18  C13 UNL     1      -1.280  -1.349   0.150  0.00  0.00    +0.000 C 
ATOM     19  O2  UNL     1      -0.885  -2.304   0.822  0.00  0.00    +0.000 OA
BRANCH  18  20
ATOM     20  C14 UNL     1      -2.617  -0.661   0.444  0.00  0.00    +0.000 C 
ATOM     21  C15 UNL     1      -3.705  -1.723   0.615  0.00  0.00    +0.000 C 
BRANCH  20  22
ATOM     22  C16 UNL     1      -2.546   0.317   1.640  0.00  0.00    +0.000 C 
ATOM     23  C17 UNL     1      -1.609   1.493   1.356  0.00  0.00    +0.000 C 
ATOM     24  C18 UNL     1      -2.164  -0.339   2.970  0.00  0.00    +0.000 C 
ENDBRANCH  20  22
ENDBRANCH  18  20
ENDBRANCH   6  18
TORSDOF 6
