MODEL 1
REMARK VINA RESULT:    -9.140      0.000      0.000
REMARK INTER + INTRA:         -13.437
REMARK INTER:                 -11.812
REMARK INTRA:                  -1.625
REMARK UNBOUND:                -1.625
REMARK  Name = teste_hibrido_g3\Hibrido_G3_Top6.pdb
REMARK  10 active torsions:
REMARK  status: ('A' for Active; 'I' for Inactive)
REMARK    1  A    between atoms: C1_1  and  C2_2
REMARK    2  A    between atoms: C2_2  and  C3_4
REMARK    3  A    between atoms: C5_6  and  C6_7
REMARK    4  A    between atoms: C8_10  and  C9_11
REMARK    5  A    between atoms: C12_14  and  C13_15
REMARK    6  A    between atoms: C14_16  and  C15_17
REMARK    7  A    between atoms: C15_17  and  C16_19
REMARK    8  A    between atoms: C16_19  and  C17_20
REMARK    9  A    between atoms: C17_20  and  C18_21
REMARK   10  A    between atoms: C17_20  and  C19_22
REMARK                            x       y       z     vdW  Elec       q    Type
REMARK                         _______ _______ _______ _____ _____    ______ ____
ROOT
ATOM      1  C9  UNL     1       2.161  67.338  64.470  0.00  0.00    +0.000 C 
ATOM      2  C10 UNL     1       0.800  67.595  63.790  0.00  0.00    +0.000 C 
ATOM      3  C11 UNL     1      -0.048  68.236  64.882  0.00  0.00    +0.000 C 
ATOM      4  C12 UNL     1       0.319  67.413  66.114  0.00  0.00    +0.000 C 
ATOM      5  C13 UNL     1      -0.163  68.014  67.424  0.00  0.00    +0.000 C 
ATOM      6  C14 UNL     1       1.833  67.147  65.974  0.00  0.00    +0.000 C 
ENDROOT
BRANCH   1  13
ATOM      7  C3  UNL     1       4.009  66.384  62.959  0.00  0.00    +0.000 C 
ATOM      8  C4  UNL     1       4.794  65.311  62.521  0.00  0.00    +0.000 C 
ATOM      9  C5  UNL     1       4.579  64.061  63.074  0.00  0.00    +0.000 C 
ATOM     10  C6  UNL     1       5.392  62.882  62.630  0.00  0.00    +0.000 C 
ATOM     11  N1  UNL     1       3.645  63.849  64.023  0.00  0.00    +0.000 NA
ATOM     12  C7  UNL     1       2.896  64.904  64.423  0.00  0.00    +0.000 C 
ATOM     13  C8  UNL     1       3.002  66.199  63.924  0.00  0.00    +0.000 C 
BRANCH   7  15
ATOM     14  C1  UNL     1       5.268  68.608  63.060  0.00  0.00    +0.000 C 
ATOM     15  C2  UNL     1       4.291  67.707  62.352  0.00  0.00    +0.000 C 
ATOM     16  O1  UNL     1       3.755  68.023  61.295  0.00  0.00    +0.000 OA
ENDBRANCH   7  15
ENDBRANCH   1  13
BRANCH   6  17
ATOM     17  C15 UNL     1       2.754  67.966  66.883  0.00  0.00    +0.000 C 
ATOM     18  O2  UNL     1       2.898  69.171  66.655  0.00  0.00    +0.000 OA
BRANCH  17  19
ATOM     19  C16 UNL     1       3.430  67.296  68.074  0.00  0.00    +0.000 C 
BRANCH  19  20
ATOM     20  C17 UNL     1       4.275  66.073  67.678  0.00  0.00    +0.000 C 
ATOM     21  C18 UNL     1       5.347  66.438  66.647  0.00  0.00    +0.000 C 
ATOM     22  C19 UNL     1       4.946  65.471  68.917  0.00  0.00    +0.000 C 
ENDBRANCH  19  20
ENDBRANCH  17  19
ENDBRANCH   6  17
TORSDOF 5
ENDMDL
MODEL 2
REMARK VINA RESULT:    -7.938      2.179      4.023
REMARK INTER + INTRA:         -11.883
REMARK INTER:                 -11.369
REMARK INTRA:                  -0.514
REMARK UNBOUND:                -1.625
REMARK  Name = teste_hibrido_g3\Hibrido_G3_Top6.pdb
REMARK  10 active torsions:
REMARK  status: ('A' for Active; 'I' for Inactive)
REMARK    1  A    between atoms: C1_1  and  C2_2
REMARK    2  A    between atoms: C2_2  and  C3_4
REMARK    3  A    between atoms: C5_6  and  C6_7
REMARK    4  A    between atoms: C8_10  and  C9_11
REMARK    5  A    between atoms: C12_14  and  C13_15
REMARK    6  A    between atoms: C14_16  and  C15_17
REMARK    7  A    between atoms: C15_17  and  C16_19
REMARK    8  A    between atoms: C16_19  and  C17_20
REMARK    9  A    between atoms: C17_20  and  C18_21
REMARK   10  A    between atoms: C17_20  and  C19_22
REMARK                            x       y       z     vdW  Elec       q    Type
REMARK                         _______ _______ _______ _____ _____    ______ ____
ROOT
ATOM      1  C9  UNL     1       2.351  66.426  64.833  0.00  0.00    +0.000 C 
ATOM      2  C10 UNL     1       3.050  65.153  64.310  0.00  0.00    +0.000 C 
ATOM      3  C11 UNL     1       4.030  64.784  65.417  0.00  0.00    +0.000 C 
ATOM      4  C12 UNL     1       4.593  66.142  65.829  0.00  0.00    +0.000 C 
ATOM      5  C13 UNL     1       5.392  66.112  67.121  0.00  0.00    +0.000 C 
ATOM      6  C14 UNL     1       3.389  67.105  65.764  0.00  0.00    +0.000 C 
ENDROOT
BRANCH   1  13
ATOM      7  C3  UNL     1       2.602  67.976  62.798  0.00  0.00    +0.000 C 
ATOM      8  C4  UNL     1       2.044  68.820  61.831  0.00  0.00    +0.000 C 
ATOM      9  C5  UNL     1       0.680  69.050  61.857  0.00  0.00    +0.000 C 
ATOM     10  C6  UNL     1       0.040  69.953  60.845  0.00  0.00    +0.000 C 
ATOM     11  N1  UNL     1      -0.123  68.482  62.779  0.00  0.00    +0.000 NA
ATOM     12  C7  UNL     1       0.445  67.675  63.707  0.00  0.00    +0.000 C 
ATOM     13  C8  UNL     1       1.804  67.389  63.796  0.00  0.00    +0.000 C 
BRANCH   7  15
ATOM     14  C1  UNL     1       4.973  68.790  63.306  0.00  0.00    +0.000 C 
ATOM     15  C2  UNL     1       4.064  67.744  62.716  0.00  0.00    +0.000 C 
ATOM     16  O1  UNL     1       4.494  66.715  62.205  0.00  0.00    +0.000 OA
ENDBRANCH   7  15
ENDBRANCH   1  13
BRANCH   6  17
ATOM     17  C15 UNL     1       2.784  67.527  67.107  0.00  0.00    +0.000 C 
ATOM     18  O2  UNL     1       3.275  68.490  67.704  0.00  0.00    +0.000 OA
BRANCH  17  19
ATOM     19  C16 UNL     1       1.566  66.790  67.652  0.00  0.00    +0.000 C 
BRANCH  19  20
ATOM     20  C17 UNL     1       1.788  66.218  69.062  0.00  0.00    +0.000 C 
ATOM     21  C18 UNL     1       0.486  65.681  69.664  0.00  0.00    +0.000 C 
ATOM     22  C19 UNL     1       2.828  65.095  69.019  0.00  0.00    +0.000 C 
ENDBRANCH  19  20
ENDBRANCH  17  19
ENDBRANCH   6  17
TORSDOF 5
ENDMDL
MODEL 3
REMARK VINA RESULT:    -7.805      5.860      8.690
REMARK INTER + INTRA:         -11.711
REMARK INTER:                 -10.206
REMARK INTRA:                  -1.505
REMARK UNBOUND:                -1.625
REMARK  Name = teste_hibrido_g3\Hibrido_G3_Top6.pdb
REMARK  10 active torsions:
REMARK  status: ('A' for Active; 'I' for Inactive)
REMARK    1  A    between atoms: C1_1  and  C2_2
REMARK    2  A    between atoms: C2_2  and  C3_4
REMARK    3  A    between atoms: C5_6  and  C6_7
REMARK    4  A    between atoms: C8_10  and  C9_11
REMARK    5  A    between atoms: C12_14  and  C13_15
REMARK    6  A    between atoms: C14_16  and  C15_17
REMARK    7  A    between atoms: C15_17  and  C16_19
REMARK    8  A    between atoms: C16_19  and  C17_20
REMARK    9  A    between atoms: C17_20  and  C18_21
REMARK   10  A    between atoms: C17_20  and  C19_22
REMARK                            x       y       z     vdW  Elec       q    Type
REMARK                         _______ _______ _______ _____ _____    ______ ____
ROOT
ATOM      1  C9  UNL     1       2.920  61.958  69.861  0.00  0.00    +0.000 C 
ATOM      2  C10 UNL     1       3.819  61.026  69.022  0.00  0.00    +0.000 C 
ATOM      3  C11 UNL     1       4.096  59.845  69.944  0.00  0.00    +0.000 C 
ATOM      4  C12 UNL     1       4.332  60.524  71.291  0.00  0.00    +0.000 C 
ATOM      5  C13 UNL     1       4.350  59.565  72.470  0.00  0.00    +0.000 C 
ATOM      6  C14 UNL     1       3.311  61.680  71.335  0.00  0.00    +0.000 C 
ENDROOT
BRANCH   1  13
ATOM      7  C3  UNL     1       1.858  64.293  69.692  0.00  0.00    +0.000 C 
ATOM      8  C4  UNL     1       1.959  65.663  69.424  0.00  0.00    +0.000 C 
ATOM      9  C5  UNL     1       3.181  66.173  69.018  0.00  0.00    +0.000 C 
ATOM     10  C6  UNL     1       3.333  67.632  68.713  0.00  0.00    +0.000 C 
ATOM     11  N1  UNL     1       4.271  65.392  68.882  0.00  0.00    +0.000 NA
ATOM     12  C7  UNL     1       4.142  64.069  69.142  0.00  0.00    +0.000 C 
ATOM     13  C8  UNL     1       2.963  63.439  69.532  0.00  0.00    +0.000 C 
BRANCH   7  15
ATOM     14  C1  UNL     1       0.047  64.243  71.497  0.00  0.00    +0.000 C 
ATOM     15  C2  UNL     1       0.535  63.799  70.143  0.00  0.00    +0.000 C 
ATOM     16  O1  UNL     1      -0.132  63.077  69.410  0.00  0.00    +0.000 OA
ENDBRANCH   7  15
ENDBRANCH   1  13
BRANCH   6  17
ATOM     17  C15 UNL     1       2.090  61.473  72.236  0.00  0.00    +0.000 C 
ATOM     18  O2  UNL     1       2.050  62.052  73.326  0.00  0.00    +0.000 OA
BRANCH  17  19
ATOM     19  C16 UNL     1       0.933  60.606  71.754  0.00  0.00    +0.000 C 
BRANCH  19  20
ATOM     20  C17 UNL     1       0.645  59.414  72.683  0.00  0.00    +0.000 C 
ATOM     21  C18 UNL     1      -0.832  59.358  73.085  0.00  0.00    +0.000 C 
ATOM     22  C19 UNL     1       1.034  58.102  71.995  0.00  0.00    +0.000 C 
ENDBRANCH  19  20
ENDBRANCH  17  19
ENDBRANCH   6  17
TORSDOF 5
ENDMDL
MODEL 4
REMARK VINA RESULT:    -6.928      6.814      9.997
REMARK INTER + INTRA:         -10.578
REMARK INTER:                  -8.938
REMARK INTRA:                  -1.640
REMARK UNBOUND:                -1.625
REMARK  Name = teste_hibrido_g3\Hibrido_G3_Top6.pdb
REMARK  10 active torsions:
REMARK  status: ('A' for Active; 'I' for Inactive)
REMARK    1  A    between atoms: C1_1  and  C2_2
REMARK    2  A    between atoms: C2_2  and  C3_4
REMARK    3  A    between atoms: C5_6  and  C6_7
REMARK    4  A    between atoms: C8_10  and  C9_11
REMARK    5  A    between atoms: C12_14  and  C13_15
REMARK    6  A    between atoms: C14_16  and  C15_17
REMARK    7  A    between atoms: C15_17  and  C16_19
REMARK    8  A    between atoms: C16_19  and  C17_20
REMARK    9  A    between atoms: C17_20  and  C18_21
REMARK   10  A    between atoms: C17_20  and  C19_22
REMARK                            x       y       z     vdW  Elec       q    Type
REMARK                         _______ _______ _______ _____ _____    ______ ____
ROOT
ATOM      1  C9  UNL     1       2.595  61.278  71.949  0.00  0.00    +0.000 C 
ATOM      2  C10 UNL     1       3.918  60.760  72.549  0.00  0.00    +0.000 C 
ATOM      3  C11 UNL     1       4.918  60.876  71.404  0.00  0.00    +0.000 C 
ATOM      4  C12 UNL     1       4.104  60.398  70.204  0.00  0.00    +0.000 C 
ATOM      5  C13 UNL     1       4.762  60.679  68.863  0.00  0.00    +0.000 C 
ATOM      6  C14 UNL     1       2.690  60.973  70.432  0.00  0.00    +0.000 C 
ENDROOT
BRANCH   1  13
ATOM      7  C3  UNL     1       0.371  61.571  73.206  0.00  0.00    +0.000 C 
ATOM      8  C4  UNL     1      -0.826  61.046  73.705  0.00  0.00    +0.000 C 
ATOM      9  C5  UNL     1      -1.087  59.698  73.525  0.00  0.00    +0.000 C 
ATOM     10  C6  UNL     1      -2.353  59.091  74.050  0.00  0.00    +0.000 C 
ATOM     11  N1  UNL     1      -0.229  58.884  72.881  0.00  0.00    +0.000 NA
ATOM     12  C7  UNL     1       0.925  59.418  72.413  0.00  0.00    +0.000 C 
ATOM     13  C8  UNL     1       1.308  60.748  72.555  0.00  0.00    +0.000 C 
BRANCH   7  15
ATOM     14  C1  UNL     1       0.012  63.967  72.386  0.00  0.00    +0.000 C 
ATOM     15  C2  UNL     1       0.595  63.022  73.404  0.00  0.00    +0.000 C 
ATOM     16  O1  UNL     1       1.214  63.418  74.387  0.00  0.00    +0.000 OA
ENDBRANCH   7  15
ENDBRANCH   1  13
BRANCH   6  17
ATOM     17  C15 UNL     1       2.297  62.174  69.566  0.00  0.00    +0.000 C 
ATOM     18  O2  UNL     1       1.716  61.971  68.496  0.00  0.00    +0.000 OA
BRANCH  17  19
ATOM     19  C16 UNL     1       2.583  63.587  70.061  0.00  0.00    +0.000 C 
BRANCH  19  20
ATOM     20  C17 UNL     1       3.504  64.381  69.119  0.00  0.00    +0.000 C 
ATOM     21  C18 UNL     1       3.147  65.871  69.107  0.00  0.00    +0.000 C 
ATOM     22  C19 UNL     1       4.966  64.213  69.543  0.00  0.00    +0.000 C 
ENDBRANCH  19  20
ENDBRANCH  17  19
ENDBRANCH   6  17
TORSDOF 5
ENDMDL
MODEL 5
REMARK VINA RESULT:    -6.842      3.790      6.764
REMARK INTER + INTRA:         -10.466
REMARK INTER:                 -10.113
REMARK INTRA:                  -0.353
REMARK UNBOUND:                -1.625
REMARK  Name = teste_hibrido_g3\Hibrido_G3_Top6.pdb
REMARK  10 active torsions:
REMARK  status: ('A' for Active; 'I' for Inactive)
REMARK    1  A    between atoms: C1_1  and  C2_2
REMARK    2  A    between atoms: C2_2  and  C3_4
REMARK    3  A    between atoms: C5_6  and  C6_7
REMARK    4  A    between atoms: C8_10  and  C9_11
REMARK    5  A    between atoms: C12_14  and  C13_15
REMARK    6  A    between atoms: C14_16  and  C15_17
REMARK    7  A    between atoms: C15_17  and  C16_19
REMARK    8  A    between atoms: C16_19  and  C17_20
REMARK    9  A    between atoms: C17_20  and  C18_21
REMARK   10  A    between atoms: C17_20  and  C19_22
REMARK                            x       y       z     vdW  Elec       q    Type
REMARK                         _______ _______ _______ _____ _____    ______ ____
ROOT
ATOM      1  C9  UNL     1       2.760  64.683  68.846  0.00  0.00    +0.000 C 
ATOM      2  C10 UNL     1       1.543  65.468  69.380  0.00  0.00    +0.000 C 
ATOM      3  C11 UNL     1       1.623  66.811  68.665  0.00  0.00    +0.000 C 
ATOM      4  C12 UNL     1       3.117  67.123  68.710  0.00  0.00    +0.000 C 
ATOM      5  C13 UNL     1       3.533  68.276  67.812  0.00  0.00    +0.000 C 
ATOM      6  C14 UNL     1       3.810  65.763  68.480  0.00  0.00    +0.000 C 
ENDROOT
BRANCH   1  13
ATOM      7  C3  UNL     1       2.543  62.729  70.503  0.00  0.00    +0.000 C 
ATOM      8  C4  UNL     1       3.122  61.722  71.284  0.00  0.00    +0.000 C 
ATOM      9  C5  UNL     1       4.500  61.591  71.285  0.00  0.00    +0.000 C 
ATOM     10  C6  UNL     1       5.163  60.532  72.113  0.00  0.00    +0.000 C 
ATOM     11  N1  UNL     1       5.295  62.397  70.554  0.00  0.00    +0.000 NA
ATOM     12  C7  UNL     1       4.708  63.367  69.812  0.00  0.00    +0.000 C 
ATOM     13  C8  UNL     1       3.340  63.611  69.750  0.00  0.00    +0.000 C 
BRANCH   7  15
ATOM     14  C1  UNL     1       0.407  63.347  71.766  0.00  0.00    +0.000 C 
ATOM     15  C2  UNL     1       1.064  62.816  70.518  0.00  0.00    +0.000 C 
ATOM     16  O1  UNL     1       0.420  62.487  69.527  0.00  0.00    +0.000 OA
ENDBRANCH   7  15
ENDBRANCH   1  13
BRANCH   6  17
ATOM     17  C15 UNL     1       4.424  65.539  67.095  0.00  0.00    +0.000 C 
ATOM     18  O2  UNL     1       5.587  65.900  66.893  0.00  0.00    +0.000 OA
BRANCH  17  19
ATOM     19  C16 UNL     1       3.612  64.833  66.015  0.00  0.00    +0.000 C 
BRANCH  19  20
ATOM     20  C17 UNL     1       3.531  65.632  64.703  0.00  0.00    +0.000 C 
ATOM     21  C18 UNL     1       3.964  64.786  63.501  0.00  0.00    +0.000 C 
ATOM     22  C19 UNL     1       2.102  66.137  64.479  0.00  0.00    +0.000 C 
ENDBRANCH  19  20
ENDBRANCH  17  19
ENDBRANCH   6  17
TORSDOF 5
ENDMDL
MODEL 6
REMARK VINA RESULT:    -6.566      6.572      9.165
REMARK INTER + INTRA:         -10.110
REMARK INTER:                  -8.770
REMARK INTRA:                  -1.339
REMARK UNBOUND:                -1.625
REMARK  Name = teste_hibrido_g3\Hibrido_G3_Top6.pdb
REMARK  10 active torsions:
REMARK  status: ('A' for Active; 'I' for Inactive)
REMARK    1  A    between atoms: C1_1  and  C2_2
REMARK    2  A    between atoms: C2_2  and  C3_4
REMARK    3  A    between atoms: C5_6  and  C6_7
REMARK    4  A    between atoms: C8_10  and  C9_11
REMARK    5  A    between atoms: C12_14  and  C13_15
REMARK    6  A    between atoms: C14_16  and  C15_17
REMARK    7  A    between atoms: C15_17  and  C16_19
REMARK    8  A    between atoms: C16_19  and  C17_20
REMARK    9  A    between atoms: C17_20  and  C18_21
REMARK   10  A    between atoms: C17_20  and  C19_22
REMARK                            x       y       z     vdW  Elec       q    Type
REMARK                         _______ _______ _______ _____ _____    ______ ____
ROOT
ATOM      1  C9  UNL     1       2.114  60.902  70.265  0.00  0.00    +0.000 C 
ATOM      2  C10 UNL     1       2.619  59.658  69.503  0.00  0.00    +0.000 C 
ATOM      3  C11 UNL     1       2.353  58.501  70.459  0.00  0.00    +0.000 C 
ATOM      4  C12 UNL     1       2.760  59.086  71.809  0.00  0.00    +0.000 C 
ATOM      5  C13 UNL     1       2.328  58.246  73.000  0.00  0.00    +0.000 C 
ATOM      6  C14 UNL     1       2.277  60.551  71.767  0.00  0.00    +0.000 C 
ENDROOT
BRANCH   1  13
ATOM      7  C3  UNL     1       2.056  63.450  69.932  0.00  0.00    +0.000 C 
ATOM      8  C4  UNL     1       2.704  64.659  69.655  0.00  0.00    +0.000 C 
ATOM      9  C5  UNL     1       4.062  64.640  69.390  0.00  0.00    +0.000 C 
ATOM     10  C6  UNL     1       4.795  65.911  69.080  0.00  0.00    +0.000 C 
ATOM     11  N1  UNL     1       4.776  63.497  69.397  0.00  0.00    +0.000 NA
ATOM     12  C7  UNL     1       4.122  62.341  69.662  0.00  0.00    +0.000 C 
ATOM     13  C8  UNL     1       2.758  62.232  69.919  0.00  0.00    +0.000 C 
BRANCH   7  15
ATOM     14  C1  UNL     1       0.190  64.173  71.525  0.00  0.00    +0.000 C 
ATOM     15  C2  UNL     1       0.606  63.525  70.230  0.00  0.00    +0.000 C 
ATOM     16  O1  UNL     1      -0.209  63.091  69.423  0.00  0.00    +0.000 OA
ENDBRANCH   7  15
ENDBRANCH   1  13
BRANCH   6  17
ATOM     17  C15 UNL     1       1.024  60.878  72.584  0.00  0.00    +0.000 C 
ATOM     18  O2  UNL     1      -0.078  60.526  72.151  0.00  0.00    +0.000 OA
BRANCH  17  19
ATOM     19  C16 UNL     1       1.162  61.580  73.930  0.00  0.00    +0.000 C 
BRANCH  19  20
ATOM     20  C17 UNL     1      -0.179  61.737  74.669  0.00  0.00    +0.000 C 
ATOM     21  C18 UNL     1      -0.414  60.591  75.657  0.00  0.00    +0.000 C 
ATOM     22  C19 UNL     1      -0.215  63.071  75.420  0.00  0.00    +0.000 C 
ENDBRANCH  19  20
ENDBRANCH  17  19
ENDBRANCH   6  17
TORSDOF 5
ENDMDL
MODEL 7
REMARK VINA RESULT:    -6.522      7.052      9.873
REMARK INTER + INTRA:         -10.053
REMARK INTER:                  -8.563
REMARK INTRA:                  -1.490
REMARK UNBOUND:                -1.625
REMARK  Name = teste_hibrido_g3\Hibrido_G3_Top6.pdb
REMARK  10 active torsions:
REMARK  status: ('A' for Active; 'I' for Inactive)
REMARK    1  A    between atoms: C1_1  and  C2_2
REMARK    2  A    between atoms: C2_2  and  C3_4
REMARK    3  A    between atoms: C5_6  and  C6_7
REMARK    4  A    between atoms: C8_10  and  C9_11
REMARK    5  A    between atoms: C12_14  and  C13_15
REMARK    6  A    between atoms: C14_16  and  C15_17
REMARK    7  A    between atoms: C15_17  and  C16_19
REMARK    8  A    between atoms: C16_19  and  C17_20
REMARK    9  A    between atoms: C17_20  and  C18_21
REMARK   10  A    between atoms: C17_20  and  C19_22
REMARK                            x       y       z     vdW  Elec       q    Type
REMARK                         _______ _______ _______ _____ _____    ______ ____
ROOT
ATOM      1  C9  UNL     1       2.613  61.084  71.301  0.00  0.00    +0.000 C 
ATOM      2  C10 UNL     1       4.156  61.063  71.317  0.00  0.00    +0.000 C 
ATOM      3  C11 UNL     1       4.554  62.065  70.240  0.00  0.00    +0.000 C 
ATOM      4  C12 UNL     1       3.557  61.766  69.123  0.00  0.00    +0.000 C 
ATOM      5  C13 UNL     1       3.530  62.814  68.023  0.00  0.00    +0.000 C 
ATOM      6  C14 UNL     1       2.228  61.470  69.850  0.00  0.00    +0.000 C 
ENDROOT
BRANCH   1  13
ATOM      7  C3  UNL     1       0.707  59.848  72.504  0.00  0.00    +0.000 C 
ATOM      8  C4  UNL     1       0.058  58.661  72.864  0.00  0.00    +0.000 C 
ATOM      9  C5  UNL     1       0.602  57.456  72.453  0.00  0.00    +0.000 C 
ATOM     10  C6  UNL     1      -0.056  56.160  72.822  0.00  0.00    +0.000 C 
ATOM     11  N1  UNL     1       1.727  57.394  71.715  0.00  0.00    +0.000 NA
ATOM     12  C7  UNL     1       2.338  58.558  71.387  0.00  0.00    +0.000 C 
ATOM     13  C8  UNL     1       1.901  59.825  71.761  0.00  0.00    +0.000 C 
BRANCH   7  15
ATOM     14  C1  UNL     1      -1.236  61.500  72.320  0.00  0.00    +0.000 C 
ATOM     15  C2  UNL     1       0.076  61.113  72.950  0.00  0.00    +0.000 C 
ATOM     16  O1  UNL     1       0.609  61.790  73.822  0.00  0.00    +0.000 OA
ENDBRANCH   7  15
ENDBRANCH   1  13
BRANCH   6  17
ATOM     17  C15 UNL     1       1.166  62.574  69.800  0.00  0.00    +0.000 C 
ATOM     18  O2  UNL     1       0.195  62.431  69.051  0.00  0.00    +0.000 OA
BRANCH  17  19
ATOM     19  C16 UNL     1       1.300  63.792  70.706  0.00  0.00    +0.000 C 
BRANCH  19  20
ATOM     20  C17 UNL     1       0.282  64.899  70.382  0.00  0.00    +0.000 C 
ATOM     21  C18 UNL     1      -0.264  65.552  71.655  0.00  0.00    +0.000 C 
ATOM     22  C19 UNL     1       0.929  65.971  69.499  0.00  0.00    +0.000 C 
ENDBRANCH  19  20
ENDBRANCH  17  19
ENDBRANCH   6  17
TORSDOF 5
ENDMDL
MODEL 8
REMARK VINA RESULT:    -6.217     19.722     21.118
REMARK INTER + INTRA:          -9.658
REMARK INTER:                  -8.451
REMARK INTRA:                  -1.207
REMARK UNBOUND:                -1.625
REMARK  Name = teste_hibrido_g3\Hibrido_G3_Top6.pdb
REMARK  10 active torsions:
REMARK  status: ('A' for Active; 'I' for Inactive)
REMARK    1  A    between atoms: C1_1  and  C2_2
REMARK    2  A    between atoms: C2_2  and  C3_4
REMARK    3  A    between atoms: C5_6  and  C6_7
REMARK    4  A    between atoms: C8_10  and  C9_11
REMARK    5  A    between atoms: C12_14  and  C13_15
REMARK    6  A    between atoms: C14_16  and  C15_17
REMARK    7  A    between atoms: C15_17  and  C16_19
REMARK    8  A    between atoms: C16_19  and  C17_20
REMARK    9  A    between atoms: C17_20  and  C18_21
REMARK   10  A    between atoms: C17_20  and  C19_22
REMARK                            x       y       z     vdW  Elec       q    Type
REMARK                         _______ _______ _______ _____ _____    ______ ____
ROOT
ATOM      1  C9  UNL     1      13.972  50.646  58.176  0.00  0.00    +0.000 C 
ATOM      2  C10 UNL     1      14.426  52.072  57.800  0.00  0.00    +0.000 C 
ATOM      3  C11 UNL     1      15.466  52.424  58.857  0.00  0.00    +0.000 C 
ATOM      4  C12 UNL     1      14.839  51.873  60.136  0.00  0.00    +0.000 C 
ATOM      5  C13 UNL     1      15.791  51.825  61.319  0.00  0.00    +0.000 C 
ATOM      6  C14 UNL     1      14.174  50.548  59.710  0.00  0.00    +0.000 C 
ENDROOT
BRANCH   1  13
ATOM      7  C3  UNL     1      12.288  49.611  56.532  0.00  0.00    +0.000 C 
ATOM      8  C4  UNL     1      10.987  49.204  56.212  0.00  0.00    +0.000 C 
ATOM      9  C5  UNL     1       9.981  49.406  57.141  0.00  0.00    +0.000 C 
ATOM     10  C6  UNL     1       8.572  48.993  56.838  0.00  0.00    +0.000 C 
ATOM     11  N1  UNL     1      10.218  49.973  58.340  0.00  0.00    +0.000 NA
ATOM     12  C7  UNL     1      11.485  50.363  58.620  0.00  0.00    +0.000 C 
ATOM     13  C8  UNL     1      12.571  50.236  57.760  0.00  0.00    +0.000 C 
BRANCH   7  15
ATOM     14  C1  UNL     1      13.883  47.956  55.410  0.00  0.00    +0.000 C 
ATOM     15  C2  UNL     1      13.335  49.356  55.514  0.00  0.00    +0.000 C 
ATOM     16  O1  UNL     1      13.705  50.262  54.775  0.00  0.00    +0.000 OA
ENDBRANCH   7  15
ENDBRANCH   1  13
BRANCH   6  17
ATOM     17  C15 UNL     1      14.895  49.261  60.125  0.00  0.00    +0.000 C 
ATOM     18  O2  UNL     1      15.936  48.947  59.538  0.00  0.00    +0.000 OA
BRANCH  17  19
ATOM     19  C16 UNL     1      14.349  48.427  61.277  0.00  0.00    +0.000 C 
BRANCH  19  20
ATOM     20  C17 UNL     1      15.420  47.546  61.944  0.00  0.00    +0.000 C 
ATOM     21  C18 UNL     1      16.178  48.309  63.035  0.00  0.00    +0.000 C 
ATOM     22  C19 UNL     1      14.773  46.299  62.554  0.00  0.00    +0.000 C 
ENDBRANCH  19  20
ENDBRANCH  17  19
ENDBRANCH   6  17
TORSDOF 5
ENDMDL
