MODEL 1
REMARK VINA RESULT:    -8.999      0.000      0.000
REMARK INTER + INTRA:         -13.382
REMARK INTER:                 -12.156
REMARK INTRA:                  -1.226
REMARK UNBOUND:                -1.226
REMARK  Name = teste_hibrido_g3\Hibrido_G3_Top4.pdb
REMARK  10 active torsions:
REMARK  status: ('A' for Active; 'I' for Inactive)
REMARK    1  A    between atoms: C1_1  and  C2_2
REMARK    2  A    between atoms: C2_2  and  C3_3
REMARK    3  A    between atoms: C3_3  and  C4_4
REMARK    4  A    between atoms: C3_3  and  C5_5
REMARK    5  A    between atoms: C5_5  and  C6_6
REMARK    6  A    between atoms: C6_6  and  C7_8
REMARK    7  A    between atoms: C8_9  and  C9_10
REMARK    8  A    between atoms: C12_13  and  C13_14
REMARK    9  A    between atoms: C17_19  and  C18_20
REMARK   10  A    between atoms: C18_20  and  C19_21
REMARK                            x       y       z     vdW  Elec       q    Type
REMARK                         _______ _______ _______ _____ _____    ______ ____
ROOT
ATOM      1  C7  UNL     1       3.116  67.048  66.853  0.00  0.00    +0.000 C 
ATOM      2  C8  UNL     1       3.371  65.778  67.694  0.00  0.00    +0.000 C 
ATOM      3  C9  UNL     1       2.529  65.573  68.940  0.00  0.00    +0.000 C 
ATOM      4  C10 UNL     1       4.875  65.778  67.951  0.00  0.00    +0.000 C 
ATOM      5  C11 UNL     1       5.449  66.267  66.629  0.00  0.00    +0.000 C 
ATOM      6  C12 UNL     1       4.478  67.371  66.180  0.00  0.00    +0.000 C 
ENDROOT
BRANCH   6   7
ATOM      7  C13 UNL     1       4.494  67.633  64.687  0.00  0.00    +0.000 C 
ATOM      8  C14 UNL     1       4.994  68.865  64.254  0.00  0.00    +0.000 C 
ATOM      9  N1  UNL     1       5.070  69.271  62.966  0.00  0.00    +0.000 NA
ATOM     10  C15 UNL     1       4.640  68.411  62.028  0.00  0.00    +0.000 C 
ATOM     11  C16 UNL     1       4.133  67.162  62.323  0.00  0.00    +0.000 C 
ATOM     12  C17 UNL     1       4.062  66.771  63.667  0.00  0.00    +0.000 C 
BRANCH  12  13
ATOM     13  C18 UNL     1       3.548  65.406  63.918  0.00  0.00    +0.000 C 
ATOM     14  C19 UNL     1       4.507  64.256  63.757  0.00  0.00    +0.000 C 
ATOM     15  O2  UNL     1       2.386  65.244  64.273  0.00  0.00    +0.000 OA
ENDBRANCH  12  13
ENDBRANCH   6   7
BRANCH   1  16
ATOM     16  C6  UNL     1       2.525  68.264  67.581  0.00  0.00    +0.000 C 
ATOM     17  O1  UNL     1       3.118  68.717  68.565  0.00  0.00    +0.000 OA
BRANCH  16  18
ATOM     18  C5  UNL     1       1.181  68.838  67.136  0.00  0.00    +0.000 C 
BRANCH  18  19
ATOM     19  C3  UNL     1       0.197  67.808  66.539  0.00  0.00    +0.000 C 
ATOM     20  C4  UNL     1      -0.768  68.538  65.593  0.00  0.00    +0.000 C 
BRANCH  19  22
ATOM     21  C1  UNL     1      -2.056  66.742  67.185  0.00  0.00    +0.000 C 
ATOM     22  C2  UNL     1      -0.631  67.061  67.605  0.00  0.00    +0.000 C 
ENDBRANCH  19  22
ENDBRANCH  18  19
ENDBRANCH  16  18
ENDBRANCH   1  16
TORSDOF 6
ENDMDL
MODEL 2
REMARK VINA RESULT:    -8.761      2.116      4.273
REMARK INTER + INTRA:         -13.060
REMARK INTER:                 -11.761
REMARK INTRA:                  -1.299
REMARK UNBOUND:                -1.226
REMARK  Name = teste_hibrido_g3\Hibrido_G3_Top4.pdb
REMARK  10 active torsions:
REMARK  status: ('A' for Active; 'I' for Inactive)
REMARK    1  A    between atoms: C1_1  and  C2_2
REMARK    2  A    between atoms: C2_2  and  C3_3
REMARK    3  A    between atoms: C3_3  and  C4_4
REMARK    4  A    between atoms: C3_3  and  C5_5
REMARK    5  A    between atoms: C5_5  and  C6_6
REMARK    6  A    between atoms: C6_6  and  C7_8
REMARK    7  A    between atoms: C8_9  and  C9_10
REMARK    8  A    between atoms: C12_13  and  C13_14
REMARK    9  A    between atoms: C17_19  and  C18_20
REMARK   10  A    between atoms: C18_20  and  C19_21
REMARK                            x       y       z     vdW  Elec       q    Type
REMARK                         _______ _______ _______ _____ _____    ______ ____
ROOT
ATOM      1  C7  UNL     1       2.758  67.568  66.780  0.00  0.00    +0.000 C 
ATOM      2  C8  UNL     1       2.107  68.967  66.751  0.00  0.00    +0.000 C 
ATOM      3  C9  UNL     1       2.016  69.734  68.057  0.00  0.00    +0.000 C 
ATOM      4  C10 UNL     1       0.765  68.758  66.055  0.00  0.00    +0.000 C 
ATOM      5  C11 UNL     1       1.101  67.757  64.957  0.00  0.00    +0.000 C 
ATOM      6  C12 UNL     1       2.083  66.780  65.624  0.00  0.00    +0.000 C 
ENDROOT
BRANCH   6   7
ATOM      7  C13 UNL     1       2.974  66.042  64.645  0.00  0.00    +0.000 C 
ATOM      8  C14 UNL     1       3.011  64.647  64.733  0.00  0.00    +0.000 C 
ATOM      9  N1  UNL     1       3.757  63.832  63.953  0.00  0.00    +0.000 NA
ATOM     10  C15 UNL     1       4.514  64.416  63.008  0.00  0.00    +0.000 C 
ATOM     11  C16 UNL     1       4.559  65.781  62.812  0.00  0.00    +0.000 C 
ATOM     12  C17 UNL     1       3.778  66.599  63.640  0.00  0.00    +0.000 C 
BRANCH  12  13
ATOM     13  C18 UNL     1       3.837  68.051  63.355  0.00  0.00    +0.000 C 
ATOM     14  C19 UNL     1       4.780  68.888  64.178  0.00  0.00    +0.000 C 
ATOM     15  O2  UNL     1       3.156  68.527  62.454  0.00  0.00    +0.000 OA
ENDBRANCH  12  13
ENDBRANCH   6   7
BRANCH   1  16
ATOM     16  C6  UNL     1       2.712  66.801  68.110  0.00  0.00    +0.000 C 
ATOM     17  O1  UNL     1       1.630  66.351  68.502  0.00  0.00    +0.000 OA
BRANCH  16  18
ATOM     18  C5  UNL     1       3.973  66.681  68.963  0.00  0.00    +0.000 C 
BRANCH  18  19
ATOM     19  C3  UNL     1       4.937  65.550  68.547  0.00  0.00    +0.000 C 
ATOM     20  C4  UNL     1       5.540  65.893  67.176  0.00  0.00    +0.000 C 
BRANCH  19  22
ATOM     21  C1  UNL     1       3.641  63.680  69.754  0.00  0.00    +0.000 C 
ATOM     22  C2  UNL     1       4.259  64.167  68.453  0.00  0.00    +0.000 C 
ENDBRANCH  19  22
ENDBRANCH  18  19
ENDBRANCH  16  18
ENDBRANCH   1  16
TORSDOF 6
ENDMDL
MODEL 3
REMARK VINA RESULT:    -8.756      2.393      4.789
REMARK INTER + INTRA:         -13.053
REMARK INTER:                 -11.383
REMARK INTRA:                  -1.670
REMARK UNBOUND:                -1.226
REMARK  Name = teste_hibrido_g3\Hibrido_G3_Top4.pdb
REMARK  10 active torsions:
REMARK  status: ('A' for Active; 'I' for Inactive)
REMARK    1  A    between atoms: C1_1  and  C2_2
REMARK    2  A    between atoms: C2_2  and  C3_3
REMARK    3  A    between atoms: C3_3  and  C4_4
REMARK    4  A    between atoms: C3_3  and  C5_5
REMARK    5  A    between atoms: C5_5  and  C6_6
REMARK    6  A    between atoms: C6_6  and  C7_8
REMARK    7  A    between atoms: C8_9  and  C9_10
REMARK    8  A    between atoms: C12_13  and  C13_14
REMARK    9  A    between atoms: C17_19  and  C18_20
REMARK   10  A    between atoms: C18_20  and  C19_21
REMARK                            x       y       z     vdW  Elec       q    Type
REMARK                         _______ _______ _______ _____ _____    ______ ____
ROOT
ATOM      1  C7  UNL     1       1.398  67.501  66.148  0.00  0.00    +0.000 C 
ATOM      2  C8  UNL     1       0.277  68.365  66.766  0.00  0.00    +0.000 C 
ATOM      3  C9  UNL     1      -0.996  68.553  65.962  0.00  0.00    +0.000 C 
ATOM      4  C10 UNL     1       0.964  69.669  67.162  0.00  0.00    +0.000 C 
ATOM      5  C11 UNL     1       2.311  69.199  67.694  0.00  0.00    +0.000 C 
ATOM      6  C12 UNL     1       2.719  68.064  66.741  0.00  0.00    +0.000 C 
ENDROOT
BRANCH   6   7
ATOM      7  C13 UNL     1       3.708  67.084  67.341  0.00  0.00    +0.000 C 
ATOM      8  C14 UNL     1       3.606  66.822  68.710  0.00  0.00    +0.000 C 
ATOM      9  N1  UNL     1       4.410  65.990  69.411  0.00  0.00    +0.000 NA
ATOM     10  C15 UNL     1       5.377  65.356  68.727  0.00  0.00    +0.000 C 
ATOM     11  C16 UNL     1       5.577  65.520  67.372  0.00  0.00    +0.000 C 
ATOM     12  C17 UNL     1       4.732  66.393  66.674  0.00  0.00    +0.000 C 
BRANCH  12  13
ATOM     13  C18 UNL     1       4.970  66.497  65.217  0.00  0.00    +0.000 C 
ATOM     14  C19 UNL     1       5.769  67.672  64.720  0.00  0.00    +0.000 C 
ATOM     15  O2  UNL     1       4.548  65.628  64.463  0.00  0.00    +0.000 OA
ENDBRANCH  12  13
ENDBRANCH   6   7
BRANCH   1  16
ATOM     16  C6  UNL     1       1.444  67.403  64.616  0.00  0.00    +0.000 C 
ATOM     17  O1  UNL     1       1.000  66.387  64.070  0.00  0.00    +0.000 OA
BRANCH  16  18
ATOM     18  C5  UNL     1       2.108  68.511  63.802  0.00  0.00    +0.000 C 
BRANCH  18  19
ATOM     19  C3  UNL     1       2.333  68.180  62.311  0.00  0.00    +0.000 C 
ATOM     20  C4  UNL     1       3.780  68.538  61.939  0.00  0.00    +0.000 C 
BRANCH  19  22
ATOM     21  C1  UNL     1      -0.070  68.960  61.814  0.00  0.00    +0.000 C 
ATOM     22  C2  UNL     1       1.381  68.938  61.363  0.00  0.00    +0.000 C 
ENDBRANCH  19  22
ENDBRANCH  18  19
ENDBRANCH  16  18
ENDBRANCH   1  16
TORSDOF 6
ENDMDL
MODEL 4
REMARK VINA RESULT:    -8.290      2.700      5.169
REMARK INTER + INTRA:         -12.424
REMARK INTER:                 -10.770
REMARK INTRA:                  -1.653
REMARK UNBOUND:                -1.226
REMARK  Name = teste_hibrido_g3\Hibrido_G3_Top4.pdb
REMARK  10 active torsions:
REMARK  status: ('A' for Active; 'I' for Inactive)
REMARK    1  A    between atoms: C1_1  and  C2_2
REMARK    2  A    between atoms: C2_2  and  C3_3
REMARK    3  A    between atoms: C3_3  and  C4_4
REMARK    4  A    between atoms: C3_3  and  C5_5
REMARK    5  A    between atoms: C5_5  and  C6_6
REMARK    6  A    between atoms: C6_6  and  C7_8
REMARK    7  A    between atoms: C8_9  and  C9_10
REMARK    8  A    between atoms: C12_13  and  C13_14
REMARK    9  A    between atoms: C17_19  and  C18_20
REMARK   10  A    between atoms: C18_20  and  C19_21
REMARK                            x       y       z     vdW  Elec       q    Type
REMARK                         _______ _______ _______ _____ _____    ______ ____
ROOT
ATOM      1  C7  UNL     1       0.966  67.610  66.865  0.00  0.00    +0.000 C 
ATOM      2  C8  UNL     1       0.557  68.982  67.444  0.00  0.00    +0.000 C 
ATOM      3  C9  UNL     1      -0.475  69.793  66.682  0.00  0.00    +0.000 C 
ATOM      4  C10 UNL     1       1.875  69.713  67.681  0.00  0.00    +0.000 C 
ATOM      5  C11 UNL     1       2.790  68.611  68.197  0.00  0.00    +0.000 C 
ATOM      6  C12 UNL     1       2.428  67.386  67.342  0.00  0.00    +0.000 C 
ENDROOT
BRANCH   6   7
ATOM      7  C13 UNL     1       2.773  66.061  67.990  0.00  0.00    +0.000 C 
ATOM      8  C14 UNL     1       2.136  65.746  69.193  0.00  0.00    +0.000 C 
ATOM      9  N1  UNL     1       2.332  64.617  69.913  0.00  0.00    +0.000 NA
ATOM     10  C15 UNL     1       3.205  63.723  69.419  0.00  0.00    +0.000 C 
ATOM     11  C16 UNL     1       3.892  63.910  68.238  0.00  0.00    +0.000 C 
ATOM     12  C17 UNL     1       3.671  65.091  67.517  0.00  0.00    +0.000 C 
BRANCH  12  13
ATOM     13  C18 UNL     1       4.406  65.216  66.238  0.00  0.00    +0.000 C 
ATOM     14  C19 UNL     1       5.579  66.160  66.194  0.00  0.00    +0.000 C 
ATOM     15  O2  UNL     1       4.073  64.542  65.271  0.00  0.00    +0.000 OA
ENDBRANCH  12  13
ENDBRANCH   6   7
BRANCH   1  16
ATOM     16  C6  UNL     1       0.813  67.416  65.349  0.00  0.00    +0.000 C 
ATOM     17  O1  UNL     1      -0.322  67.329  64.870  0.00  0.00    +0.000 OA
BRANCH  16  18
ATOM     18  C5  UNL     1       2.055  67.248  64.474  0.00  0.00    +0.000 C 
BRANCH  18  19
ATOM     19  C3  UNL     1       2.625  68.559  63.892  0.00  0.00    +0.000 C 
ATOM     20  C4  UNL     1       2.721  68.420  62.365  0.00  0.00    +0.000 C 
BRANCH  19  22
ATOM     21  C1  UNL     1       5.129  68.907  63.402  0.00  0.00    +0.000 C 
ATOM     22  C2  UNL     1       4.021  68.919  64.442  0.00  0.00    +0.000 C 
ENDBRANCH  19  22
ENDBRANCH  18  19
ENDBRANCH  16  18
ENDBRANCH   1  16
TORSDOF 6
ENDMDL
MODEL 5
REMARK VINA RESULT:    -8.199      5.792      8.676
REMARK INTER + INTRA:         -12.300
REMARK INTER:                 -10.848
REMARK INTRA:                  -1.452
REMARK UNBOUND:                -1.226
REMARK  Name = teste_hibrido_g3\Hibrido_G3_Top4.pdb
REMARK  10 active torsions:
REMARK  status: ('A' for Active; 'I' for Inactive)
REMARK    1  A    between atoms: C1_1  and  C2_2
REMARK    2  A    between atoms: C2_2  and  C3_3
REMARK    3  A    between atoms: C3_3  and  C4_4
REMARK    4  A    between atoms: C3_3  and  C5_5
REMARK    5  A    between atoms: C5_5  and  C6_6
REMARK    6  A    between atoms: C6_6  and  C7_8
REMARK    7  A    between atoms: C8_9  and  C9_10
REMARK    8  A    between atoms: C12_13  and  C13_14
REMARK    9  A    between atoms: C17_19  and  C18_20
REMARK   10  A    between atoms: C18_20  and  C19_21
REMARK                            x       y       z     vdW  Elec       q    Type
REMARK                         _______ _______ _______ _____ _____    ______ ____
ROOT
ATOM      1  C7  UNL     1       1.233  62.490  69.990  0.00  0.00    +0.000 C 
ATOM      2  C8  UNL     1       0.182  63.553  70.375  0.00  0.00    +0.000 C 
ATOM      3  C9  UNL     1       0.028  64.759  69.466  0.00  0.00    +0.000 C 
ATOM      4  C10 UNL     1       0.494  63.901  71.827  0.00  0.00    +0.000 C 
ATOM      5  C11 UNL     1       0.862  62.553  72.432  0.00  0.00    +0.000 C 
ATOM      6  C12 UNL     1       1.686  61.859  71.335  0.00  0.00    +0.000 C 
ENDROOT
BRANCH   6   7
ATOM      7  C13 UNL     1       1.706  60.347  71.446  0.00  0.00    +0.000 C 
ATOM      8  C14 UNL     1       0.641  59.737  72.116  0.00  0.00    +0.000 C 
ATOM      9  N1  UNL     1       0.503  58.406  72.319  0.00  0.00    +0.000 NA
ATOM     10  C15 UNL     1       1.465  57.610  71.824  0.00  0.00    +0.000 C 
ATOM     11  C16 UNL     1       2.562  58.087  71.135  0.00  0.00    +0.000 C 
ATOM     12  C17 UNL     1       2.679  59.470  70.945  0.00  0.00    +0.000 C 
BRANCH  12  13
ATOM     13  C18 UNL     1       3.856  59.918  70.165  0.00  0.00    +0.000 C 
ATOM     14  C19 UNL     1       4.982  60.580  70.915  0.00  0.00    +0.000 C 
ATOM     15  O2  UNL     1       3.903  59.718  68.957  0.00  0.00    +0.000 OA
ENDBRANCH  12  13
ENDBRANCH   6   7
BRANCH   1  16
ATOM     16  C6  UNL     1       2.423  62.957  69.138  0.00  0.00    +0.000 C 
ATOM     17  O1  UNL     1       2.572  62.479  68.009  0.00  0.00    +0.000 OA
BRANCH  16  18
ATOM     18  C5  UNL     1       3.443  63.931  69.724  0.00  0.00    +0.000 C 
BRANCH  18  19
ATOM     19  C3  UNL     1       3.886  65.063  68.772  0.00  0.00    +0.000 C 
ATOM     20  C4  UNL     1       5.415  65.193  68.836  0.00  0.00    +0.000 C 
BRANCH  19  22
ATOM     21  C1  UNL     1       3.489  67.507  68.062  0.00  0.00    +0.000 C 
ATOM     22  C2  UNL     1       3.262  66.432  69.113  0.00  0.00    +0.000 C 
ENDBRANCH  19  22
ENDBRANCH  18  19
ENDBRANCH  16  18
ENDBRANCH   1  16
TORSDOF 6
ENDMDL
MODEL 6
REMARK VINA RESULT:    -8.049      5.656      8.113
REMARK INTER + INTRA:         -12.098
REMARK INTER:                 -10.518
REMARK INTRA:                  -1.580
REMARK UNBOUND:                -1.226
REMARK  Name = teste_hibrido_g3\Hibrido_G3_Top4.pdb
REMARK  10 active torsions:
REMARK  status: ('A' for Active; 'I' for Inactive)
REMARK    1  A    between atoms: C1_1  and  C2_2
REMARK    2  A    between atoms: C2_2  and  C3_3
REMARK    3  A    between atoms: C3_3  and  C4_4
REMARK    4  A    between atoms: C3_3  and  C5_5
REMARK    5  A    between atoms: C5_5  and  C6_6
REMARK    6  A    between atoms: C6_6  and  C7_8
REMARK    7  A    between atoms: C8_9  and  C9_10
REMARK    8  A    between atoms: C12_13  and  C13_14
REMARK    9  A    between atoms: C17_19  and  C18_20
REMARK   10  A    between atoms: C18_20  and  C19_21
REMARK                            x       y       z     vdW  Elec       q    Type
REMARK                         _______ _______ _______ _____ _____    ______ ____
ROOT
ATOM      1  C7  UNL     1       1.605  62.558  71.795  0.00  0.00    +0.000 C 
ATOM      2  C8  UNL     1       0.141  62.830  72.203  0.00  0.00    +0.000 C 
ATOM      3  C9  UNL     1      -0.445  62.004  73.334  0.00  0.00    +0.000 C 
ATOM      4  C10 UNL     1      -0.647  62.750  70.899  0.00  0.00    +0.000 C 
ATOM      5  C11 UNL     1       0.282  63.419  69.895  0.00  0.00    +0.000 C 
ATOM      6  C12 UNL     1       1.683  62.924  70.288  0.00  0.00    +0.000 C 
ENDROOT
BRANCH   6   7
ATOM      7  C13 UNL     1       2.806  63.832  69.829  0.00  0.00    +0.000 C 
ATOM      8  C14 UNL     1       2.488  65.168  69.567  0.00  0.00    +0.000 C 
ATOM      9  N1  UNL     1       3.358  66.112  69.140  0.00  0.00    +0.000 NA
ATOM     10  C15 UNL     1       4.635  65.731  68.965  0.00  0.00    +0.000 C 
ATOM     11  C16 UNL     1       5.079  64.445  69.198  0.00  0.00    +0.000 C 
ATOM     12  C17 UNL     1       4.153  63.489  69.636  0.00  0.00    +0.000 C 
BRANCH  12  13
ATOM     13  C18 UNL     1       4.697  62.139  69.907  0.00  0.00    +0.000 C 
ATOM     14  C19 UNL     1       4.345  61.036  68.944  0.00  0.00    +0.000 C 
ATOM     15  O2  UNL     1       5.430  61.956  70.872  0.00  0.00    +0.000 OA
ENDBRANCH  12  13
ENDBRANCH   6   7
BRANCH   1  16
ATOM     16  C6  UNL     1       2.163  61.156  72.082  0.00  0.00    +0.000 C 
ATOM     17  O1  UNL     1       3.016  61.023  72.967  0.00  0.00    +0.000 OA
BRANCH  16  18
ATOM     18  C5  UNL     1       1.726  59.972  71.223  0.00  0.00    +0.000 C 
BRANCH  18  19
ATOM     19  C3  UNL     1       2.191  58.590  71.730  0.00  0.00    +0.000 C 
ATOM     20  C4  UNL     1       3.044  57.924  70.639  0.00  0.00    +0.000 C 
BRANCH  19  22
ATOM     21  C1  UNL     1      -0.077  58.288  72.912  0.00  0.00    +0.000 C 
ATOM     22  C2  UNL     1       1.027  57.643  72.090  0.00  0.00    +0.000 C 
ENDBRANCH  19  22
ENDBRANCH  18  19
ENDBRANCH  16  18
ENDBRANCH   1  16
TORSDOF 6
ENDMDL
MODEL 7
REMARK VINA RESULT:    -7.899      2.590      4.719
REMARK INTER + INTRA:         -11.896
REMARK INTER:                 -11.071
REMARK INTRA:                  -0.825
REMARK UNBOUND:                -1.226
REMARK  Name = teste_hibrido_g3\Hibrido_G3_Top4.pdb
REMARK  10 active torsions:
REMARK  status: ('A' for Active; 'I' for Inactive)
REMARK    1  A    between atoms: C1_1  and  C2_2
REMARK    2  A    between atoms: C2_2  and  C3_3
REMARK    3  A    between atoms: C3_3  and  C4_4
REMARK    4  A    between atoms: C3_3  and  C5_5
REMARK    5  A    between atoms: C5_5  and  C6_6
REMARK    6  A    between atoms: C6_6  and  C7_8
REMARK    7  A    between atoms: C8_9  and  C9_10
REMARK    8  A    between atoms: C12_13  and  C13_14
REMARK    9  A    between atoms: C17_19  and  C18_20
REMARK   10  A    between atoms: C18_20  and  C19_21
REMARK                            x       y       z     vdW  Elec       q    Type
REMARK                         _______ _______ _______ _____ _____    ______ ____
ROOT
ATOM      1  C7  UNL     1       3.733  65.861  66.633  0.00  0.00    +0.000 C 
ATOM      2  C8  UNL     1       4.727  66.440  67.663  0.00  0.00    +0.000 C 
ATOM      3  C9  UNL     1       5.731  65.490  68.290  0.00  0.00    +0.000 C 
ATOM      4  C10 UNL     1       3.854  67.181  68.671  0.00  0.00    +0.000 C 
ATOM      5  C11 UNL     1       2.789  67.826  67.795  0.00  0.00    +0.000 C 
ATOM      6  C12 UNL     1       2.467  66.756  66.740  0.00  0.00    +0.000 C 
ENDROOT
BRANCH   6   7
ATOM      7  C13 UNL     1       1.874  67.312  65.461  0.00  0.00    +0.000 C 
ATOM      8  C14 UNL     1       0.484  67.447  65.401  0.00  0.00    +0.000 C 
ATOM      9  N1  UNL     1      -0.213  67.911  64.339  0.00  0.00    +0.000 NA
ATOM     10  C15 UNL     1       0.495  68.284  63.259  0.00  0.00    +0.000 C 
ATOM     11  C16 UNL     1       1.871  68.210  63.196  0.00  0.00    +0.000 C 
ATOM     12  C17 UNL     1       2.565  67.720  64.310  0.00  0.00    +0.000 C 
BRANCH  12  13
ATOM     13  C18 UNL     1       4.041  67.703  64.196  0.00  0.00    +0.000 C 
ATOM     14  C19 UNL     1       4.796  68.908  64.692  0.00  0.00    +0.000 C 
ATOM     15  O2  UNL     1       4.609  66.717  63.740  0.00  0.00    +0.000 OA
ENDBRANCH  12  13
ENDBRANCH   6   7
BRANCH   1  16
ATOM     16  C6  UNL     1       3.399  64.366  66.745  0.00  0.00    +0.000 C 
ATOM     17  O1  UNL     1       3.532  63.649  65.748  0.00  0.00    +0.000 OA
BRANCH  16  18
ATOM     18  C5  UNL     1       2.831  63.809  68.049  0.00  0.00    +0.000 C 
BRANCH  18  19
ATOM     19  C3  UNL     1       3.464  62.482  68.522  0.00  0.00    +0.000 C 
ATOM     20  C4  UNL     1       2.351  61.437  68.692  0.00  0.00    +0.000 C 
BRANCH  19  22
ATOM     21  C1  UNL     1       4.933  61.336  70.299  0.00  0.00    +0.000 C 
ATOM     22  C2  UNL     1       4.229  62.608  69.856  0.00  0.00    +0.000 C 
ENDBRANCH  19  22
ENDBRANCH  18  19
ENDBRANCH  16  18
ENDBRANCH   1  16
TORSDOF 6
ENDMDL
MODEL 8
REMARK VINA RESULT:    -7.845      2.116      5.002
REMARK INTER + INTRA:         -11.823
REMARK INTER:                 -10.471
REMARK INTRA:                  -1.352
REMARK UNBOUND:                -1.226
REMARK  Name = teste_hibrido_g3\Hibrido_G3_Top4.pdb
REMARK  10 active torsions:
REMARK  status: ('A' for Active; 'I' for Inactive)
REMARK    1  A    between atoms: C1_1  and  C2_2
REMARK    2  A    between atoms: C2_2  and  C3_3
REMARK    3  A    between atoms: C3_3  and  C4_4
REMARK    4  A    between atoms: C3_3  and  C5_5
REMARK    5  A    between atoms: C5_5  and  C6_6
REMARK    6  A    between atoms: C6_6  and  C7_8
REMARK    7  A    between atoms: C8_9  and  C9_10
REMARK    8  A    between atoms: C12_13  and  C13_14
REMARK    9  A    between atoms: C17_19  and  C18_20
REMARK   10  A    between atoms: C18_20  and  C19_21
REMARK                            x       y       z     vdW  Elec       q    Type
REMARK                         _______ _______ _______ _____ _____    ______ ____
ROOT
ATOM      1  C7  UNL     1       3.837  66.028  68.156  0.00  0.00    +0.000 C 
ATOM      2  C8  UNL     1       4.025  65.137  69.402  0.00  0.00    +0.000 C 
ATOM      3  C9  UNL     1       5.201  64.177  69.416  0.00  0.00    +0.000 C 
ATOM      4  C10 UNL     1       2.670  64.466  69.609  0.00  0.00    +0.000 C 
ATOM      5  C11 UNL     1       1.683  65.578  69.280  0.00  0.00    +0.000 C 
ATOM      6  C12 UNL     1       2.309  66.294  68.071  0.00  0.00    +0.000 C 
ENDROOT
BRANCH   6   7
ATOM      7  C13 UNL     1       1.840  67.724  67.894  0.00  0.00    +0.000 C 
ATOM      8  C14 UNL     1       2.674  68.739  68.371  0.00  0.00    +0.000 C 
ATOM      9  N1  UNL     1       2.410  70.065  68.310  0.00  0.00    +0.000 NA
ATOM     10  C15 UNL     1       1.254  70.430  67.731  0.00  0.00    +0.000 C 
ATOM     11  C16 UNL     1       0.349  69.527  67.212  0.00  0.00    +0.000 C 
ATOM     12  C17 UNL     1       0.649  68.161  67.295  0.00  0.00    +0.000 C 
BRANCH  12  13
ATOM     13  C18 UNL     1      -0.341  67.243  66.685  0.00  0.00    +0.000 C 
ATOM     14  C19 UNL     1      -1.452  66.729  67.562  0.00  0.00    +0.000 C 
ATOM     15  O2  UNL     1      -0.257  66.952  65.498  0.00  0.00    +0.000 OA
ENDBRANCH  12  13
ENDBRANCH   6   7
BRANCH   1  16
ATOM     16  C6  UNL     1       4.411  65.509  66.829  0.00  0.00    +0.000 C 
ATOM     17  O1  UNL     1       3.907  64.506  66.313  0.00  0.00    +0.000 OA
BRANCH  16  18
ATOM     18  C5  UNL     1       5.639  66.180  66.217  0.00  0.00    +0.000 C 
BRANCH  18  19
ATOM     19  C3  UNL     1       5.358  67.031  64.960  0.00  0.00    +0.000 C 
ATOM     20  C4  UNL     1       4.442  68.201  65.349  0.00  0.00    +0.000 C 
BRANCH  19  22
ATOM     21  C1  UNL     1       3.279  66.700  63.477  0.00  0.00    +0.000 C 
ATOM     22  C2  UNL     1       4.686  66.239  63.819  0.00  0.00    +0.000 C 
ENDBRANCH  19  22
ENDBRANCH  18  19
ENDBRANCH  16  18
ENDBRANCH   1  16
TORSDOF 6
ENDMDL
MODEL 9
REMARK VINA RESULT:    -7.698      6.096      9.135
REMARK INTER + INTRA:         -11.624
REMARK INTER:                 -10.950
REMARK INTRA:                  -0.673
REMARK UNBOUND:                -1.226
REMARK  Name = teste_hibrido_g3\Hibrido_G3_Top4.pdb
REMARK  10 active torsions:
REMARK  status: ('A' for Active; 'I' for Inactive)
REMARK    1  A    between atoms: C1_1  and  C2_2
REMARK    2  A    between atoms: C2_2  and  C3_3
REMARK    3  A    between atoms: C3_3  and  C4_4
REMARK    4  A    between atoms: C3_3  and  C5_5
REMARK    5  A    between atoms: C5_5  and  C6_6
REMARK    6  A    between atoms: C6_6  and  C7_8
REMARK    7  A    between atoms: C8_9  and  C9_10
REMARK    8  A    between atoms: C12_13  and  C13_14
REMARK    9  A    between atoms: C17_19  and  C18_20
REMARK   10  A    between atoms: C18_20  and  C19_21
REMARK                            x       y       z     vdW  Elec       q    Type
REMARK                         _______ _______ _______ _____ _____    ______ ____
ROOT
ATOM      1  C7  UNL     1       2.907  61.246  70.876  0.00  0.00    +0.000 C 
ATOM      2  C8  UNL     1       4.174  60.370  70.988  0.00  0.00    +0.000 C 
ATOM      3  C9  UNL     1       5.493  60.971  70.538  0.00  0.00    +0.000 C 
ATOM      4  C10 UNL     1       3.809  59.066  70.285  0.00  0.00    +0.000 C 
ATOM      5  C11 UNL     1       2.364  58.842  70.706  0.00  0.00    +0.000 C 
ATOM      6  C12 UNL     1       1.737  60.245  70.672  0.00  0.00    +0.000 C 
ENDROOT
BRANCH   6   7
ATOM      7  C13 UNL     1       0.509  60.391  71.548  0.00  0.00    +0.000 C 
ATOM      8  C14 UNL     1       0.175  59.314  72.374  0.00  0.00    +0.000 C 
ATOM      9  N1  UNL     1      -0.889  59.266  73.208  0.00  0.00    +0.000 NA
ATOM     10  C15 UNL     1      -1.680  60.351  73.251  0.00  0.00    +0.000 C 
ATOM     11  C16 UNL     1      -1.455  61.482  72.493  0.00  0.00    +0.000 C 
ATOM     12  C17 UNL     1      -0.347  61.500  71.635  0.00  0.00    +0.000 C 
BRANCH  12  13
ATOM     13  C18 UNL     1      -0.135  62.755  70.879  0.00  0.00    +0.000 C 
ATOM     14  C19 UNL     1       0.216  63.993  71.661  0.00  0.00    +0.000 C 
ATOM     15  O2  UNL     1      -0.216  62.755  69.656  0.00  0.00    +0.000 OA
ENDBRANCH  12  13
ENDBRANCH   6   7
BRANCH   1  16
ATOM     16  C6  UNL     1       2.915  62.356  69.814  0.00  0.00    +0.000 C 
ATOM     17  O1  UNL     1       2.666  62.061  68.641  0.00  0.00    +0.000 OA
BRANCH  16  18
ATOM     18  C5  UNL     1       3.309  63.779  70.205  0.00  0.00    +0.000 C 
BRANCH  18  19
ATOM     19  C3  UNL     1       3.715  64.691  69.027  0.00  0.00    +0.000 C 
ATOM     20  C4  UNL     1       5.237  64.899  69.064  0.00  0.00    +0.000 C 
BRANCH  19  22
ATOM     21  C1  UNL     1       3.717  67.133  68.211  0.00  0.00    +0.000 C 
ATOM     22  C2  UNL     1       3.029  66.073  69.054  0.00  0.00    +0.000 C 
ENDBRANCH  19  22
ENDBRANCH  18  19
ENDBRANCH  16  18
ENDBRANCH   1  16
TORSDOF 6
ENDMDL
