MODEL 1
REMARK VINA RESULT:    -5.860      0.000      0.000
REMARK INTER + INTRA:          -7.788
REMARK INTER:                  -7.059
REMARK INTRA:                  -0.729
REMARK UNBOUND:                -0.729
REMARK  Name = teste_hibrido_g3\Hibrido_G3_Top8.pdb
REMARK  6 active torsions:
REMARK  status: ('A' for Active; 'I' for Inactive)
REMARK    1  A    between atoms: C1_1  and  C2_2
REMARK    2  A    between atoms: C4_4  and  C5_5
REMARK    3  A    between atoms: N1_6  and  O1_7
REMARK    4  A    between atoms: C6_8  and  C7_9
REMARK    5  A    between atoms: C10_12  and  C11_13
REMARK    6  A    between atoms: C12_14  and  C13_15
REMARK                            x       y       z     vdW  Elec       q    Type
REMARK                         _______ _______ _______ _____ _____    ______ ____
ROOT
ATOM      1  C1  UNL     1       3.514   3.748  24.199  0.00  0.00    +0.000 C 
ATOM      2  C2  UNL     1       3.164   2.968  22.968  0.00  0.00    +0.000 C 
ATOM      3  C3  UNL     1       3.181   1.583  22.991  0.00  0.00    +0.000 C 
ATOM      4  C4  UNL     1       2.842   0.880  21.829  0.00  0.00    +0.000 C 
ATOM      5  C6  UNL     1       2.502   1.571  20.650  0.00  0.00    +0.000 C 
ATOM      6  C14 UNL     1       2.530   2.961  20.745  0.00  0.00    +0.000 C 
ATOM      7  N3  UNL     1       2.837   3.663  21.859  0.00  0.00    +0.000 NA
ENDROOT
BRANCH   5   8
ATOM      8  C7  UNL     1       2.123   0.864  19.362  0.00  0.00    +0.000 C 
ATOM      9  C8  UNL     1       2.629   1.511  18.056  0.00  0.00    +0.000 C 
ATOM     10  C9  UNL     1       1.427   2.247  17.485  0.00  0.00    +0.000 C 
ATOM     11  C10 UNL     1       0.248   1.320  17.776  0.00  0.00    +0.000 C 
ATOM     12  C11 UNL     1       0.049   0.291  16.660  0.00  0.00    +0.000 C 
ATOM     13  C12 UNL     1       0.602   0.636  19.118  0.00  0.00    +0.000 C 
BRANCH  13  14
ATOM     14  C13 UNL     1      -0.333   1.053  20.247  0.00  0.00    +0.000 C 
ATOM     15  N2  UNL     1      -0.557   0.164  21.251  0.00  0.00    +0.000 N 
ATOM     16  O2  UNL     1      -0.898   2.144  20.255  0.00  0.00    +0.000 OA
ATOM     17  H   UNL     1      -0.104  -0.710  21.244  0.00  0.00    +0.000 HD
ATOM     18  H   UNL     1      -1.171   0.394  21.984  0.00  0.00    +0.000 HD
ENDBRANCH  13  14
ENDBRANCH   5   8
BRANCH   4  19
ATOM     19  C5  UNL     1       2.854  -0.601  21.899  0.00  0.00    +0.000 C 
ATOM     20  N1  UNL     1       1.910  -1.268  22.487  0.00  0.00    +0.000 NA
BRANCH  20  21
ATOM     21  O1  UNL     1       2.202  -2.635  22.403  0.00  0.00    +0.000 OA
ATOM     22  H   UNL     1       2.987  -2.971  22.790  0.00  0.00    +0.000 HD
ENDBRANCH  20  21
ENDBRANCH   4  19
TORSDOF 4
ENDMDL
MODEL 2
REMARK VINA RESULT:    -5.765     25.419     27.015
REMARK INTER + INTRA:          -7.674
REMARK INTER:                  -6.916
REMARK INTRA:                  -0.758
REMARK UNBOUND:                -0.729
REMARK  Name = teste_hibrido_g3\Hibrido_G3_Top8.pdb
REMARK  6 active torsions:
REMARK  status: ('A' for Active; 'I' for Inactive)
REMARK    1  A    between atoms: C1_1  and  C2_2
REMARK    2  A    between atoms: C4_4  and  C5_5
REMARK    3  A    between atoms: N1_6  and  O1_7
REMARK    4  A    between atoms: C6_8  and  C7_9
REMARK    5  A    between atoms: C10_12  and  C11_13
REMARK    6  A    between atoms: C12_14  and  C13_15
REMARK                            x       y       z     vdW  Elec       q    Type
REMARK                         _______ _______ _______ _____ _____    ______ ____
ROOT
ATOM      1  C1  UNL     1      22.360 -10.084   4.129  0.00  0.00    +0.000 C 
ATOM      2  C2  UNL     1      21.085  -9.410   3.720  0.00  0.00    +0.000 C 
ATOM      3  C3  UNL     1      21.079  -8.063   3.398  0.00  0.00    +0.000 C 
ATOM      4  C4  UNL     1      19.874  -7.463   3.011  0.00  0.00    +0.000 C 
ATOM      5  C6  UNL     1      18.685  -8.214   2.964  0.00  0.00    +0.000 C 
ATOM      6  C14 UNL     1      18.813  -9.556   3.319  0.00  0.00    +0.000 C 
ATOM      7  N3  UNL     1      19.966 -10.163   3.679  0.00  0.00    +0.000 NA
ENDROOT
BRANCH   5   8
ATOM      8  C7  UNL     1      17.352  -7.620   2.549  0.00  0.00    +0.000 C 
ATOM      9  C8  UNL     1      16.110  -8.142   3.301  0.00  0.00    +0.000 C 
ATOM     10  C9  UNL     1      15.459  -9.135   2.352  0.00  0.00    +0.000 C 
ATOM     11  C10 UNL     1      15.625  -8.500   0.973  0.00  0.00    +0.000 C 
ATOM     12  C11 UNL     1      14.470  -7.550   0.645  0.00  0.00    +0.000 C 
ATOM     13  C12 UNL     1      16.975  -7.745   1.043  0.00  0.00    +0.000 C 
BRANCH  13  14
ATOM     14  C13 UNL     1      18.030  -8.359   0.131  0.00  0.00    +0.000 C 
ATOM     15  N2  UNL     1      18.951  -7.528  -0.426  0.00  0.00    +0.000 N 
ATOM     16  O2  UNL     1      18.051  -9.560  -0.126  0.00  0.00    +0.000 OA
ATOM     17  H   UNL     1      18.935  -6.566  -0.220  0.00  0.00    +0.000 HD
ATOM     18  H   UNL     1      19.634  -7.889  -1.036  0.00  0.00    +0.000 HD
ENDBRANCH  13  14
ENDBRANCH   5   8
BRANCH   4  19
ATOM     19  C5  UNL     1      19.913  -6.023   2.658  0.00  0.00    +0.000 C 
ATOM     20  N1  UNL     1      20.373  -5.608   1.518  0.00  0.00    +0.000 NA
BRANCH  20  21
ATOM     21  O1  UNL     1      20.293  -4.212   1.480  0.00  0.00    +0.000 OA
ATOM     22  H   UNL     1      20.764  -3.733   0.826  0.00  0.00    +0.000 HD
ENDBRANCH  20  21
ENDBRANCH   4  19
TORSDOF 4
ENDMDL
MODEL 3
REMARK VINA RESULT:    -5.386      3.153      5.138
REMARK INTER + INTRA:          -7.217
REMARK INTER:                  -6.441
REMARK INTRA:                  -0.776
REMARK UNBOUND:                -0.729
REMARK  Name = teste_hibrido_g3\Hibrido_G3_Top8.pdb
REMARK  6 active torsions:
REMARK  status: ('A' for Active; 'I' for Inactive)
REMARK    1  A    between atoms: C1_1  and  C2_2
REMARK    2  A    between atoms: C4_4  and  C5_5
REMARK    3  A    between atoms: N1_6  and  O1_7
REMARK    4  A    between atoms: C6_8  and  C7_9
REMARK    5  A    between atoms: C10_12  and  C11_13
REMARK    6  A    between atoms: C12_14  and  C13_15
REMARK                            x       y       z     vdW  Elec       q    Type
REMARK                         _______ _______ _______ _____ _____    ______ ____
ROOT
ATOM      1  C1  UNL     1      -4.441  -0.063  20.238  0.00  0.00    +0.000 C 
ATOM      2  C2  UNL     1      -3.024  -0.289  19.805  0.00  0.00    +0.000 C 
ATOM      3  C3  UNL     1      -1.978  -0.025  20.673  0.00  0.00    +0.000 C 
ATOM      4  C4  UNL     1      -0.665  -0.254  20.244  0.00  0.00    +0.000 C 
ATOM      5  C6  UNL     1      -0.412  -0.733  18.945  0.00  0.00    +0.000 C 
ATOM      6  C14 UNL     1      -1.541  -0.952  18.160  0.00  0.00    +0.000 C 
ATOM      7  N3  UNL     1      -2.819  -0.756  18.556  0.00  0.00    +0.000 NA
ENDROOT
BRANCH   5   8
ATOM      8  C7  UNL     1       0.989  -1.003  18.426  0.00  0.00    +0.000 C 
ATOM      9  C8  UNL     1       1.255  -0.623  16.955  0.00  0.00    +0.000 C 
ATOM     10  C9  UNL     1       1.197  -1.935  16.188  0.00  0.00    +0.000 C 
ATOM     11  C10 UNL     1       1.867  -2.943  17.119  0.00  0.00    +0.000 C 
ATOM     12  C11 UNL     1       3.384  -2.980  16.914  0.00  0.00    +0.000 C 
ATOM     13  C12 UNL     1       1.502  -2.468  18.547  0.00  0.00    +0.000 C 
BRANCH  13  14
ATOM     14  C13 UNL     1       0.584  -3.449  19.267  0.00  0.00    +0.000 C 
ATOM     15  N2  UNL     1       0.749  -3.608  20.607  0.00  0.00    +0.000 N 
ATOM     16  O2  UNL     1      -0.266  -4.104  18.670  0.00  0.00    +0.000 OA
ATOM     17  H   UNL     1       1.430  -3.083  21.086  0.00  0.00    +0.000 HD
ATOM     18  H   UNL     1       0.186  -4.249  21.099  0.00  0.00    +0.000 HD
ENDBRANCH  13  14
ENDBRANCH   5   8
BRANCH   4  19
ATOM     19  C5  UNL     1       0.426   0.025  21.209  0.00  0.00    +0.000 C 
ATOM     20  N1  UNL     1       0.810  -0.853  22.084  0.00  0.00    +0.000 NA
BRANCH  20  21
ATOM     21  O1  UNL     1       1.839  -0.301  22.856  0.00  0.00    +0.000 OA
ATOM     22  H   UNL     1       1.691  -0.102  23.760  0.00  0.00    +0.000 HD
ENDBRANCH  20  21
ENDBRANCH   4  19
TORSDOF 4
ENDMDL
MODEL 4
REMARK VINA RESULT:    -5.285      3.362      5.377
REMARK INTER + INTRA:          -7.095
REMARK INTER:                  -6.585
REMARK INTRA:                  -0.510
REMARK UNBOUND:                -0.729
REMARK  Name = teste_hibrido_g3\Hibrido_G3_Top8.pdb
REMARK  6 active torsions:
REMARK  status: ('A' for Active; 'I' for Inactive)
REMARK    1  A    between atoms: C1_1  and  C2_2
REMARK    2  A    between atoms: C4_4  and  C5_5
REMARK    3  A    between atoms: N1_6  and  O1_7
REMARK    4  A    between atoms: C6_8  and  C7_9
REMARK    5  A    between atoms: C10_12  and  C11_13
REMARK    6  A    between atoms: C12_14  and  C13_15
REMARK                            x       y       z     vdW  Elec       q    Type
REMARK                         _______ _______ _______ _____ _____    ______ ____
ROOT
ATOM      1  C1  UNL     1       2.864  -4.028  18.687  0.00  0.00    +0.000 C 
ATOM      2  C2  UNL     1       1.690  -3.324  19.297  0.00  0.00    +0.000 C 
ATOM      3  C3  UNL     1       1.868  -2.475  20.376  0.00  0.00    +0.000 C 
ATOM      4  C4  UNL     1       0.753  -1.825  20.920  0.00  0.00    +0.000 C 
ATOM      5  C6  UNL     1      -0.531  -2.043  20.386  0.00  0.00    +0.000 C 
ATOM      6  C14 UNL     1      -0.588  -2.925  19.309  0.00  0.00    +0.000 C 
ATOM      7  N3  UNL     1       0.475  -3.551  18.755  0.00  0.00    +0.000 NA
ENDROOT
BRANCH   5   8
ATOM      8  C7  UNL     1      -1.775  -1.365  20.931  0.00  0.00    +0.000 C 
ATOM      9  C8  UNL     1      -3.063  -2.213  20.945  0.00  0.00    +0.000 C 
ATOM     10  C9  UNL     1      -3.867  -1.735  19.746  0.00  0.00    +0.000 C 
ATOM     11  C10 UNL     1      -3.640  -0.225  19.721  0.00  0.00    +0.000 C 
ATOM     12  C11 UNL     1      -4.654   0.514  20.597  0.00  0.00    +0.000 C 
ATOM     13  C12 UNL     1      -2.195  -0.032  20.244  0.00  0.00    +0.000 C 
BRANCH  13  14
ATOM     14  C13 UNL     1      -1.255   0.500  19.169  0.00  0.00    +0.000 C 
ATOM     15  N2  UNL     1      -1.545   0.214  17.871  0.00  0.00    +0.000 N 
ATOM     16  O2  UNL     1      -0.248   1.145  19.445  0.00  0.00    +0.000 OA
ATOM     17  H   UNL     1      -2.353  -0.303  17.649  0.00  0.00    +0.000 HD
ATOM     18  H   UNL     1      -0.948   0.525  17.153  0.00  0.00    +0.000 HD
ENDBRANCH  13  14
ENDBRANCH   5   8
BRANCH   4  19
ATOM     19  C5  UNL     1       0.988  -0.911  22.064  0.00  0.00    +0.000 C 
ATOM     20  N1  UNL     1       1.857   0.050  22.007  0.00  0.00    +0.000 NA
BRANCH  20  21
ATOM     21  O1  UNL     1       1.863   0.727  23.232  0.00  0.00    +0.000 OA
ATOM     22  H   UNL     1       1.054   0.946  23.650  0.00  0.00    +0.000 HD
ENDBRANCH  20  21
ENDBRANCH   4  19
TORSDOF 4
ENDMDL
MODEL 5
REMARK VINA RESULT:    -5.204     24.629     26.328
REMARK INTER + INTRA:          -6.999
REMARK INTER:                  -6.261
REMARK INTRA:                  -0.737
REMARK UNBOUND:                -0.729
REMARK  Name = teste_hibrido_g3\Hibrido_G3_Top8.pdb
REMARK  6 active torsions:
REMARK  status: ('A' for Active; 'I' for Inactive)
REMARK    1  A    between atoms: C1_1  and  C2_2
REMARK    2  A    between atoms: C4_4  and  C5_5
REMARK    3  A    between atoms: N1_6  and  O1_7
REMARK    4  A    between atoms: C6_8  and  C7_9
REMARK    5  A    between atoms: C10_12  and  C11_13
REMARK    6  A    between atoms: C12_14  and  C13_15
REMARK                            x       y       z     vdW  Elec       q    Type
REMARK                         _______ _______ _______ _____ _____    ______ ____
ROOT
ATOM      1  C1  UNL     1      17.698  -9.914   1.356  0.00  0.00    +0.000 C 
ATOM      2  C2  UNL     1      17.551  -8.424   1.296  0.00  0.00    +0.000 C 
ATOM      3  C3  UNL     1      18.235  -7.692   0.338  0.00  0.00    +0.000 C 
ATOM      4  C4  UNL     1      18.071  -6.302   0.301  0.00  0.00    +0.000 C 
ATOM      5  C6  UNL     1      17.236  -5.656   1.232  0.00  0.00    +0.000 C 
ATOM      6  C14 UNL     1      16.609  -6.494   2.152  0.00  0.00    +0.000 C 
ATOM      7  N3  UNL     1      16.737  -7.839   2.199  0.00  0.00    +0.000 NA
ENDROOT
BRANCH   5   8
ATOM      8  C7  UNL     1      17.017  -4.154   1.238  0.00  0.00    +0.000 C 
ATOM      9  C8  UNL     1      16.774  -3.507   2.617  0.00  0.00    +0.000 C 
ATOM     10  C9  UNL     1      15.272  -3.279   2.691  0.00  0.00    +0.000 C 
ATOM     11  C10 UNL     1      14.890  -2.845   1.278  0.00  0.00    +0.000 C 
ATOM     12  C11 UNL     1      15.031  -1.331   1.094  0.00  0.00    +0.000 C 
ATOM     13  C12 UNL     1      15.856  -3.619   0.349  0.00  0.00    +0.000 C 
BRANCH  13  14
ATOM     14  C13 UNL     1      15.133  -4.649  -0.511  0.00  0.00    +0.000 C 
ATOM     15  N2  UNL     1      15.488  -4.748  -1.820  0.00  0.00    +0.000 N 
ATOM     16  O2  UNL     1      14.238  -5.359  -0.062  0.00  0.00    +0.000 OA
ATOM     17  H   UNL     1      16.206  -4.178  -2.180  0.00  0.00    +0.000 HD
ATOM     18  H   UNL     1      15.027  -5.388  -2.408  0.00  0.00    +0.000 HD
ENDBRANCH  13  14
ENDBRANCH   5   8
BRANCH   4  19
ATOM     19  C5  UNL     1      18.806  -5.557  -0.750  0.00  0.00    +0.000 C 
ATOM     20  N1  UNL     1      18.490  -5.649  -2.004  0.00  0.00    +0.000 NA
BRANCH  20  21
ATOM     21  O1  UNL     1      19.363  -4.848  -2.750  0.00  0.00    +0.000 OA
ATOM     22  H   UNL     1      20.161  -5.210  -3.084  0.00  0.00    +0.000 HD
ENDBRANCH  20  21
ENDBRANCH   4  19
TORSDOF 4
ENDMDL
MODEL 6
REMARK VINA RESULT:    -5.192      2.711      5.114
REMARK INTER + INTRA:          -6.984
REMARK INTER:                  -6.508
REMARK INTRA:                  -0.475
REMARK UNBOUND:                -0.729
REMARK  Name = teste_hibrido_g3\Hibrido_G3_Top8.pdb
REMARK  6 active torsions:
REMARK  status: ('A' for Active; 'I' for Inactive)
REMARK    1  A    between atoms: C1_1  and  C2_2
REMARK    2  A    between atoms: C4_4  and  C5_5
REMARK    3  A    between atoms: N1_6  and  O1_7
REMARK    4  A    between atoms: C6_8  and  C7_9
REMARK    5  A    between atoms: C10_12  and  C11_13
REMARK    6  A    between atoms: C12_14  and  C13_15
REMARK                            x       y       z     vdW  Elec       q    Type
REMARK                         _______ _______ _______ _____ _____    ______ ____
ROOT
ATOM      1  C1  UNL     1       1.115  -4.914  18.755  0.00  0.00    +0.000 C 
ATOM      2  C2  UNL     1       0.960  -3.439  18.973  0.00  0.00    +0.000 C 
ATOM      3  C3  UNL     1      -0.159  -2.942  19.623  0.00  0.00    +0.000 C 
ATOM      4  C4  UNL     1      -0.272  -1.561  19.819  0.00  0.00    +0.000 C 
ATOM      5  C6  UNL     1       0.729  -0.688  19.352  0.00  0.00    +0.000 C 
ATOM      6  C14 UNL     1       1.801  -1.302  18.706  0.00  0.00    +0.000 C 
ATOM      7  N3  UNL     1       1.942  -2.633  18.519  0.00  0.00    +0.000 NA
ENDROOT
BRANCH   5   8
ATOM      8  C7  UNL     1       0.663   0.817  19.539  0.00  0.00    +0.000 C 
ATOM      9  C8  UNL     1       1.273   1.671  18.410  0.00  0.00    +0.000 C 
ATOM     10  C9  UNL     1       2.631   2.112  18.934  0.00  0.00    +0.000 C 
ATOM     11  C10 UNL     1       2.386   2.400  20.413  0.00  0.00    +0.000 C 
ATOM     12  C11 UNL     1       1.919   3.841  20.638  0.00  0.00    +0.000 C 
ATOM     13  C12 UNL     1       1.302   1.382  20.842  0.00  0.00    +0.000 C 
BRANCH  13  14
ATOM     14  C13 UNL     1       1.832   0.355  21.836  0.00  0.00    +0.000 C 
ATOM     15  N2  UNL     1       1.024  -0.011  22.866  0.00  0.00    +0.000 N 
ATOM     16  O2  UNL     1       2.961  -0.120  21.742  0.00  0.00    +0.000 OA
ATOM     17  H   UNL     1       0.119   0.370  22.941  0.00  0.00    +0.000 HD
ATOM     18  H   UNL     1       1.343  -0.656  23.537  0.00  0.00    +0.000 HD
ENDBRANCH  13  14
ENDBRANCH   5   8
BRANCH   4  19
ATOM     19  C5  UNL     1      -1.475  -1.070  20.534  0.00  0.00    +0.000 C 
ATOM     20  N1  UNL     1      -2.673  -1.422  20.182  0.00  0.00    +0.000 NA
BRANCH  20  21
ATOM     21  O1  UNL     1      -3.596  -0.794  21.027  0.00  0.00    +0.000 OA
ATOM     22  H   UNL     1      -3.680   0.140  21.017  0.00  0.00    +0.000 HD
ENDBRANCH  20  21
ENDBRANCH   4  19
TORSDOF 4
ENDMDL
MODEL 7
REMARK VINA RESULT:    -5.123      4.456      6.962
REMARK INTER + INTRA:          -6.900
REMARK INTER:                  -6.442
REMARK INTRA:                  -0.458
REMARK UNBOUND:                -0.729
REMARK  Name = teste_hibrido_g3\Hibrido_G3_Top8.pdb
REMARK  6 active torsions:
REMARK  status: ('A' for Active; 'I' for Inactive)
REMARK    1  A    between atoms: C1_1  and  C2_2
REMARK    2  A    between atoms: C4_4  and  C5_5
REMARK    3  A    between atoms: N1_6  and  O1_7
REMARK    4  A    between atoms: C6_8  and  C7_9
REMARK    5  A    between atoms: C10_12  and  C11_13
REMARK    6  A    between atoms: C12_14  and  C13_15
REMARK                            x       y       z     vdW  Elec       q    Type
REMARK                         _______ _______ _______ _____ _____    ______ ____
ROOT
ATOM      1  C1  UNL     1      -1.489  -5.621  15.476  0.00  0.00    +0.000 C 
ATOM      2  C2  UNL     1      -0.869  -5.009  16.696  0.00  0.00    +0.000 C 
ATOM      3  C3  UNL     1       0.360  -5.454  17.153  0.00  0.00    +0.000 C 
ATOM      4  C4  UNL     1       0.919  -4.858  18.290  0.00  0.00    +0.000 C 
ATOM      5  C6  UNL     1       0.235  -3.830  18.966  0.00  0.00    +0.000 C 
ATOM      6  C14 UNL     1      -0.996  -3.473  18.420  0.00  0.00    +0.000 C 
ATOM      7  N3  UNL     1      -1.549  -4.021  17.314  0.00  0.00    +0.000 NA
ENDROOT
BRANCH   5   8
ATOM      8  C7  UNL     1       0.791  -3.144  20.201  0.00  0.00    +0.000 C 
ATOM      9  C8  UNL     1      -0.180  -2.987  21.389  0.00  0.00    +0.000 C 
ATOM     10  C9  UNL     1      -0.642  -1.540  21.336  0.00  0.00    +0.000 C 
ATOM     11  C10 UNL     1       0.607  -0.762  20.930  0.00  0.00    +0.000 C 
ATOM     12  C11 UNL     1       1.448  -0.367  22.147  0.00  0.00    +0.000 C 
ATOM     13  C12 UNL     1       1.384  -1.719  19.994  0.00  0.00    +0.000 C 
BRANCH  13  14
ATOM     14  C13 UNL     1       1.436  -1.210  18.558  0.00  0.00    +0.000 C 
ATOM     15  N2  UNL     1       2.415  -1.691  17.746  0.00  0.00    +0.000 N 
ATOM     16  O2  UNL     1       0.644  -0.373  18.135  0.00  0.00    +0.000 OA
ATOM     17  H   UNL     1       3.050  -2.362  18.086  0.00  0.00    +0.000 HD
ATOM     18  H   UNL     1       2.490  -1.368  16.820  0.00  0.00    +0.000 HD
ENDBRANCH  13  14
ENDBRANCH   5   8
BRANCH   4  19
ATOM     19  C5  UNL     1       2.244  -5.351  18.738  0.00  0.00    +0.000 C 
ATOM     20  N1  UNL     1       3.302  -4.603  18.703  0.00  0.00    +0.000 NA
BRANCH  20  21
ATOM     21  O1  UNL     1       4.395  -5.342  19.172  0.00  0.00    +0.000 OA
ATOM     22  H   UNL     1       4.533  -6.217  18.868  0.00  0.00    +0.000 HD
ENDBRANCH  20  21
ENDBRANCH   4  19
TORSDOF 4
ENDMDL
MODEL 8
REMARK VINA RESULT:    -5.075      2.955      3.970
REMARK INTER + INTRA:          -6.842
REMARK INTER:                  -6.073
REMARK INTRA:                  -0.769
REMARK UNBOUND:                -0.729
REMARK  Name = teste_hibrido_g3\Hibrido_G3_Top8.pdb
REMARK  6 active torsions:
REMARK  status: ('A' for Active; 'I' for Inactive)
REMARK    1  A    between atoms: C1_1  and  C2_2
REMARK    2  A    between atoms: C4_4  and  C5_5
REMARK    3  A    between atoms: N1_6  and  O1_7
REMARK    4  A    between atoms: C6_8  and  C7_9
REMARK    5  A    between atoms: C10_12  and  C11_13
REMARK    6  A    between atoms: C12_14  and  C13_15
REMARK                            x       y       z     vdW  Elec       q    Type
REMARK                         _______ _______ _______ _____ _____    ______ ____
ROOT
ATOM      1  C1  UNL     1       2.233  -2.526  22.500  0.00  0.00    +0.000 C 
ATOM      2  C2  UNL     1       2.026  -1.858  21.175  0.00  0.00    +0.000 C 
ATOM      3  C3  UNL     1       1.838  -2.617  20.031  0.00  0.00    +0.000 C 
ATOM      4  C4  UNL     1       1.639  -1.965  18.808  0.00  0.00    +0.000 C 
ATOM      5  C6  UNL     1       1.643  -0.559  18.740  0.00  0.00    +0.000 C 
ATOM      6  C14 UNL     1       1.850   0.097  19.952  0.00  0.00    +0.000 C 
ATOM      7  N3  UNL     1       2.028  -0.509  21.148  0.00  0.00    +0.000 NA
ENDROOT
BRANCH   5   8
ATOM      8  C7  UNL     1       1.429   0.203  17.445  0.00  0.00    +0.000 C 
ATOM      9  C8  UNL     1       2.264   1.487  17.264  0.00  0.00    +0.000 C 
ATOM     10  C9  UNL     1       1.311   2.630  17.575  0.00  0.00    +0.000 C 
ATOM     11  C10 UNL     1      -0.019   2.183  16.971  0.00  0.00    +0.000 C 
ATOM     12  C11 UNL     1      -0.136   2.590  15.499  0.00  0.00    +0.000 C 
ATOM     13  C12 UNL     1      -0.032   0.644  17.133  0.00  0.00    +0.000 C 
BRANCH  13  14
ATOM     14  C13 UNL     1      -1.103   0.173  18.110  0.00  0.00    +0.000 C 
ATOM     15  N2  UNL     1      -1.724  -1.010  17.853  0.00  0.00    +0.000 N 
ATOM     16  O2  UNL     1      -1.429   0.838  19.090  0.00  0.00    +0.000 OA
ATOM     17  H   UNL     1      -1.463  -1.542  17.068  0.00  0.00    +0.000 HD
ATOM     18  H   UNL     1      -2.435  -1.333  18.453  0.00  0.00    +0.000 HD
ENDBRANCH  13  14
ENDBRANCH   5   8
BRANCH   4  19
ATOM     19  C5  UNL     1       1.425  -2.812  17.611  0.00  0.00    +0.000 C 
ATOM     20  N1  UNL     1       0.298  -3.414  17.388  0.00  0.00    +0.000 NA
BRANCH  20  21
ATOM     21  O1  UNL     1       0.402  -4.144  16.198  0.00  0.00    +0.000 OA
ATOM     22  H   UNL     1       1.010  -4.855  16.136  0.00  0.00    +0.000 HD
ENDBRANCH  20  21
ENDBRANCH   4  19
TORSDOF 4
ENDMDL
MODEL 9
REMARK VINA RESULT:    -5.068      2.975      4.732
REMARK INTER + INTRA:          -6.835
REMARK INTER:                  -6.326
REMARK INTRA:                  -0.508
REMARK UNBOUND:                -0.729
REMARK  Name = teste_hibrido_g3\Hibrido_G3_Top8.pdb
REMARK  6 active torsions:
REMARK  status: ('A' for Active; 'I' for Inactive)
REMARK    1  A    between atoms: C1_1  and  C2_2
REMARK    2  A    between atoms: C4_4  and  C5_5
REMARK    3  A    between atoms: N1_6  and  O1_7
REMARK    4  A    between atoms: C6_8  and  C7_9
REMARK    5  A    between atoms: C10_12  and  C11_13
REMARK    6  A    between atoms: C12_14  and  C13_15
REMARK                            x       y       z     vdW  Elec       q    Type
REMARK                         _______ _______ _______ _____ _____    ______ ____
ROOT
ATOM      1  C1  UNL     1       3.093  -4.500  18.672  0.00  0.00    +0.000 C 
ATOM      2  C2  UNL     1       2.138  -3.345  18.628  0.00  0.00    +0.000 C 
ATOM      3  C3  UNL     1       1.035  -3.318  19.464  0.00  0.00    +0.000 C 
ATOM      4  C4  UNL     1       0.165  -2.223  19.406  0.00  0.00    +0.000 C 
ATOM      5  C6  UNL     1       0.401  -1.171  18.501  0.00  0.00    +0.000 C 
ATOM      6  C14 UNL     1       1.535  -1.313  17.704  0.00  0.00    +0.000 C 
ATOM      7  N3  UNL     1       2.400  -2.352  17.753  0.00  0.00    +0.000 NA
ENDROOT
BRANCH   5   8
ATOM      8  C7  UNL     1      -0.504   0.043  18.395  0.00  0.00    +0.000 C 
ATOM      9  C8  UNL     1      -0.676   0.643  16.984  0.00  0.00    +0.000 C 
ATOM     10  C9  UNL     1       0.226   1.867  16.959  0.00  0.00    +0.000 C 
ATOM     11  C10 UNL     1       0.073   2.473  18.352  0.00  0.00    +0.000 C 
ATOM     12  C11 UNL     1      -1.109   3.444  18.419  0.00  0.00    +0.000 C 
ATOM     13  C12 UNL     1      -0.137   1.262  19.292  0.00  0.00    +0.000 C 
BRANCH  13  14
ATOM     14  C13 UNL     1       1.028   1.065  20.255  0.00  0.00    +0.000 C 
ATOM     15  N2  UNL     1       0.746   0.659  21.522  0.00  0.00    +0.000 N 
ATOM     16  O2  UNL     1       2.190   1.287  19.925  0.00  0.00    +0.000 OA
ATOM     17  H   UNL     1      -0.185   0.481  21.786  0.00  0.00    +0.000 HD
ATOM     18  H   UNL     1       1.474   0.542  22.175  0.00  0.00    +0.000 HD
ENDBRANCH  13  14
ENDBRANCH   5   8
BRANCH   4  19
ATOM     19  C5  UNL     1      -0.995  -2.223  20.329  0.00  0.00    +0.000 C 
ATOM     20  N1  UNL     1      -0.935  -2.764  21.507  0.00  0.00    +0.000 NA
BRANCH  20  21
ATOM     21  O1  UNL     1      -2.178  -2.620  22.134  0.00  0.00    +0.000 OA
ATOM     22  H   UNL     1      -2.417  -1.799  22.519  0.00  0.00    +0.000 HD
ENDBRANCH  20  21
ENDBRANCH   4  19
TORSDOF 4
ENDMDL
