MODEL 1
REMARK VINA RESULT:    -7.881      0.000      0.000
REMARK INTER + INTRA:          -9.651
REMARK INTER:                  -9.263
REMARK INTRA:                  -0.387
REMARK UNBOUND:                -0.387
REMARK  Name = teste_hibrido_g3\Hibrido_G3_Top5.pdb
REMARK  5 active torsions:
REMARK  status: ('A' for Active; 'I' for Inactive)
REMARK    1  A    between atoms: C1_1  and  C2_2
REMARK    2  A    between atoms: C2_2  and  C3_4
REMARK    3  A    between atoms: C7_9  and  C8_10
REMARK    4  A    between atoms: C11_13  and  C12_14
REMARK    5  A    between atoms: C13_15  and  C14_16
REMARK                            x       y       z     vdW  Elec       q    Type
REMARK                         _______ _______ _______ _____ _____    ______ ____
ROOT
ATOM      1  C8  UNL     1       3.424  67.522  65.027  0.00  0.00    +0.000 C 
ATOM      2  C9  UNL     1       4.873  68.029  64.841  0.00  0.00    +0.000 C 
ATOM      3  C10 UNL     1       5.808  67.011  65.498  0.00  0.00    +0.000 C 
ATOM      4  C11 UNL     1       4.916  65.963  66.163  0.00  0.00    +0.000 C 
ATOM      5  C12 UNL     1       4.697  66.272  67.645  0.00  0.00    +0.000 C 
ATOM      6  C13 UNL     1       3.606  66.018  65.358  0.00  0.00    +0.000 C 
ENDROOT
BRANCH   1  12
ATOM      7  C3  UNL     1       1.043  68.114  64.220  0.00  0.00    +0.000 C 
ATOM      8  C4  UNL     1       0.159  68.521  63.213  0.00  0.00    +0.000 C 
ATOM      9  C5  UNL     1       0.668  68.731  61.951  0.00  0.00    +0.000 C 
ATOM     10  N1  UNL     1       1.961  68.541  61.643  0.00  0.00    +0.000 NA
ATOM     11  C6  UNL     1       2.790  68.135  62.636  0.00  0.00    +0.000 C 
ATOM     12  C7  UNL     1       2.420  67.949  63.968  0.00  0.00    +0.000 C 
BRANCH   7  14
ATOM     13  C1  UNL     1       0.506  68.783  66.633  0.00  0.00    +0.000 C 
ATOM     14  C2  UNL     1       0.429  67.767  65.523  0.00  0.00    +0.000 C 
ATOM     15  O1  UNL     1      -0.144  66.690  65.657  0.00  0.00    +0.000 OA
ENDBRANCH   7  14
ENDBRANCH   1  12
BRANCH   6  16
ATOM     16  C14 UNL     1       3.679  65.020  64.202  0.00  0.00    +0.000 C 
ATOM     17  N2  UNL     1       2.791  63.995  64.158  0.00  0.00    +0.000 N 
ATOM     18  O2  UNL     1       4.493  65.152  63.290  0.00  0.00    +0.000 OA
ATOM     19  H   UNL     1       2.136  63.880  64.883  0.00  0.00    +0.000 HD
ATOM     20  H   UNL     1       2.803  63.365  63.400  0.00  0.00    +0.000 HD
ENDBRANCH   6  16
TORSDOF 3
ENDMDL
MODEL 2
REMARK VINA RESULT:    -7.837      2.347      4.223
REMARK INTER + INTRA:          -9.598
REMARK INTER:                  -9.179
REMARK INTRA:                  -0.419
REMARK UNBOUND:                -0.387
REMARK  Name = teste_hibrido_g3\Hibrido_G3_Top5.pdb
REMARK  5 active torsions:
REMARK  status: ('A' for Active; 'I' for Inactive)
REMARK    1  A    between atoms: C1_1  and  C2_2
REMARK    2  A    between atoms: C2_2  and  C3_4
REMARK    3  A    between atoms: C7_9  and  C8_10
REMARK    4  A    between atoms: C11_13  and  C12_14
REMARK    5  A    between atoms: C13_15  and  C14_16
REMARK                            x       y       z     vdW  Elec       q    Type
REMARK                         _______ _______ _______ _____ _____    ______ ____
ROOT
ATOM      1  C8  UNL     1       3.598  67.296  66.108  0.00  0.00    +0.000 C 
ATOM      2  C9  UNL     1       3.750  66.651  67.505  0.00  0.00    +0.000 C 
ATOM      3  C10 UNL     1       2.754  67.337  68.442  0.00  0.00    +0.000 C 
ATOM      4  C11 UNL     1       2.092  68.454  67.637  0.00  0.00    +0.000 C 
ATOM      5  C12 UNL     1       2.782  69.799  67.870  0.00  0.00    +0.000 C 
ATOM      6  C13 UNL     1       2.211  67.985  66.176  0.00  0.00    +0.000 C 
ENDROOT
BRANCH   1  12
ATOM      7  C3  UNL     1       4.240  66.921  63.634  0.00  0.00    +0.000 C 
ATOM      8  C4  UNL     1       4.570  66.070  62.573  0.00  0.00    +0.000 C 
ATOM      9  C5  UNL     1       4.580  64.713  62.808  0.00  0.00    +0.000 C 
ATOM     10  N1  UNL     1       4.264  64.176  63.998  0.00  0.00    +0.000 NA
ATOM     11  C6  UNL     1       3.936  65.024  65.003  0.00  0.00    +0.000 C 
ATOM     12  C7  UNL     1       3.951  66.417  64.919  0.00  0.00    +0.000 C 
BRANCH   7  14
ATOM     13  C1  UNL     1       5.316  69.239  63.479  0.00  0.00    +0.000 C 
ATOM     14  C2  UNL     1       4.108  68.358  63.299  0.00  0.00    +0.000 C 
ATOM     15  O1  UNL     1       3.044  68.784  62.862  0.00  0.00    +0.000 OA
ENDBRANCH   7  14
ENDBRANCH   1  12
BRANCH   6  16
ATOM     16  C14 UNL     1       0.972  67.171  65.802  0.00  0.00    +0.000 C 
ATOM     17  N2  UNL     1      -0.003  66.989  66.728  0.00  0.00    +0.000 N 
ATOM     18  O2  UNL     1       0.819  66.717  64.670  0.00  0.00    +0.000 OA
ATOM     19  H   UNL     1       0.109  67.349  67.638  0.00  0.00    +0.000 HD
ATOM     20  H   UNL     1      -0.822  66.498  66.491  0.00  0.00    +0.000 HD
ENDBRANCH   6  16
TORSDOF 3
ENDMDL
MODEL 3
REMARK VINA RESULT:    -7.699      2.173      3.414
REMARK INTER + INTRA:          -9.437
REMARK INTER:                  -8.922
REMARK INTRA:                  -0.515
REMARK UNBOUND:                -0.387
REMARK  Name = teste_hibrido_g3\Hibrido_G3_Top5.pdb
REMARK  5 active torsions:
REMARK  status: ('A' for Active; 'I' for Inactive)
REMARK    1  A    between atoms: C1_1  and  C2_2
REMARK    2  A    between atoms: C2_2  and  C3_4
REMARK    3  A    between atoms: C7_9  and  C8_10
REMARK    4  A    between atoms: C11_13  and  C12_14
REMARK    5  A    between atoms: C13_15  and  C14_16
REMARK                            x       y       z     vdW  Elec       q    Type
REMARK                         _______ _______ _______ _____ _____    ______ ____
ROOT
ATOM      1  C8  UNL     1       2.529  68.381  64.664  0.00  0.00    +0.000 C 
ATOM      2  C9  UNL     1       2.249  68.609  63.160  0.00  0.00    +0.000 C 
ATOM      3  C10 UNL     1       3.536  68.293  62.397  0.00  0.00    +0.000 C 
ATOM      4  C11 UNL     1       4.604  67.985  63.446  0.00  0.00    +0.000 C 
ATOM      5  C12 UNL     1       5.449  69.219  63.766  0.00  0.00    +0.000 C 
ATOM      6  C13 UNL     1       3.802  67.497  64.666  0.00  0.00    +0.000 C 
ENDROOT
BRANCH   1  12
ATOM      7  C3  UNL     1       1.317  68.088  66.926  0.00  0.00    +0.000 C 
ATOM      8  C4  UNL     1       0.187  67.727  67.670  0.00  0.00    +0.000 C 
ATOM      9  C5  UNL     1      -0.909  67.245  66.990  0.00  0.00    +0.000 C 
ATOM     10  N1  UNL     1      -0.930  67.085  65.657  0.00  0.00    +0.000 NA
ATOM     11  C6  UNL     1       0.183  67.431  64.965  0.00  0.00    +0.000 C 
ATOM     12  C7  UNL     1       1.334  67.992  65.520  0.00  0.00    +0.000 C 
BRANCH   7  14
ATOM     13  C1  UNL     1       2.640  69.901  68.157  0.00  0.00    +0.000 C 
ATOM     14  C2  UNL     1       2.516  68.469  67.709  0.00  0.00    +0.000 C 
ATOM     15  O1  UNL     1       3.351  67.617  67.993  0.00  0.00    +0.000 OA
ENDBRANCH   7  14
ENDBRANCH   1  12
BRANCH   6  16
ATOM     16  C14 UNL     1       3.637  65.979  64.590  0.00  0.00    +0.000 C 
ATOM     17  N2  UNL     1       3.219  65.305  65.691  0.00  0.00    +0.000 N 
ATOM     18  O2  UNL     1       3.829  65.363  63.543  0.00  0.00    +0.000 OA
ATOM     19  H   UNL     1       3.062  65.788  66.534  0.00  0.00    +0.000 HD
ATOM     20  H   UNL     1       3.073  64.332  65.647  0.00  0.00    +0.000 HD
ENDBRANCH   6  16
TORSDOF 3
ENDMDL
MODEL 4
REMARK VINA RESULT:    -7.544      2.490      4.908
REMARK INTER + INTRA:          -9.255
REMARK INTER:                  -8.861
REMARK INTRA:                  -0.394
REMARK UNBOUND:                -0.387
REMARK  Name = teste_hibrido_g3\Hibrido_G3_Top5.pdb
REMARK  5 active torsions:
REMARK  status: ('A' for Active; 'I' for Inactive)
REMARK    1  A    between atoms: C1_1  and  C2_2
REMARK    2  A    between atoms: C2_2  and  C3_4
REMARK    3  A    between atoms: C7_9  and  C8_10
REMARK    4  A    between atoms: C11_13  and  C12_14
REMARK    5  A    between atoms: C13_15  and  C14_16
REMARK                            x       y       z     vdW  Elec       q    Type
REMARK                         _______ _______ _______ _____ _____    ______ ____
ROOT
ATOM      1  C8  UNL     1       1.592  67.401  65.768  0.00  0.00    +0.000 C 
ATOM      2  C9  UNL     1       0.484  67.933  64.829  0.00  0.00    +0.000 C 
ATOM      3  C10 UNL     1      -0.712  68.324  65.699  0.00  0.00    +0.000 C 
ATOM      4  C11 UNL     1      -0.360  67.927  67.133  0.00  0.00    +0.000 C 
ATOM      5  C12 UNL     1      -0.929  66.553  67.490  0.00  0.00    +0.000 C 
ATOM      6  C13 UNL     1       1.179  67.944  67.160  0.00  0.00    +0.000 C 
ENDROOT
BRANCH   1  12
ATOM      7  C3  UNL     1       4.106  66.808  65.770  0.00  0.00    +0.000 C 
ATOM      8  C4  UNL     1       5.405  66.991  65.283  0.00  0.00    +0.000 C 
ATOM      9  C5  UNL     1       5.607  67.960  64.325  0.00  0.00    +0.000 C 
ATOM     10  N1  UNL     1       4.622  68.746  63.862  0.00  0.00    +0.000 NA
ATOM     11  C6  UNL     1       3.377  68.554  64.362  0.00  0.00    +0.000 C 
ATOM     12  C7  UNL     1       3.023  67.568  65.282  0.00  0.00    +0.000 C 
BRANCH   7  14
ATOM     13  C1  UNL     1       4.210  66.362  68.289  0.00  0.00    +0.000 C 
ATOM     14  C2  UNL     1       3.961  65.853  66.894  0.00  0.00    +0.000 C 
ATOM     15  O1  UNL     1       3.618  64.697  66.668  0.00  0.00    +0.000 OA
ENDBRANCH   7  14
ENDBRANCH   1  12
BRANCH   6  16
ATOM     16  C14 UNL     1       1.663  69.334  67.574  0.00  0.00    +0.000 C 
ATOM     17  N2  UNL     1       0.747  70.291  67.871  0.00  0.00    +0.000 N 
ATOM     18  O2  UNL     1       2.860  69.591  67.687  0.00  0.00    +0.000 OA
ATOM     19  H   UNL     1      -0.214  70.097  67.784  0.00  0.00    +0.000 HD
ATOM     20  H   UNL     1       1.044  71.180  68.174  0.00  0.00    +0.000 HD
ENDBRANCH   6  16
TORSDOF 3
ENDMDL
MODEL 5
REMARK VINA RESULT:    -7.449      7.566      9.721
REMARK INTER + INTRA:          -9.143
REMARK INTER:                  -8.769
REMARK INTRA:                  -0.373
REMARK UNBOUND:                -0.387
REMARK  Name = teste_hibrido_g3\Hibrido_G3_Top5.pdb
REMARK  5 active torsions:
REMARK  status: ('A' for Active; 'I' for Inactive)
REMARK    1  A    between atoms: C1_1  and  C2_2
REMARK    2  A    between atoms: C2_2  and  C3_4
REMARK    3  A    between atoms: C7_9  and  C8_10
REMARK    4  A    between atoms: C11_13  and  C12_14
REMARK    5  A    between atoms: C13_15  and  C14_16
REMARK                            x       y       z     vdW  Elec       q    Type
REMARK                         _______ _______ _______ _____ _____    ______ ____
ROOT
ATOM      1  C8  UNL     1       2.307  61.371  70.184  0.00  0.00    +0.000 C 
ATOM      2  C9  UNL     1       2.512  61.296  68.653  0.00  0.00    +0.000 C 
ATOM      3  C10 UNL     1       3.550  62.353  68.273  0.00  0.00    +0.000 C 
ATOM      4  C11 UNL     1       3.880  63.123  69.551  0.00  0.00    +0.000 C 
ATOM      5  C12 UNL     1       3.053  64.405  69.663  0.00  0.00    +0.000 C 
ATOM      6  C13 UNL     1       3.565  62.128  70.681  0.00  0.00    +0.000 C 
ENDROOT
BRANCH   1  12
ATOM      7  C3  UNL     1       0.923  60.033  71.907  0.00  0.00    +0.000 C 
ATOM      8  C4  UNL     1       0.551  58.820  72.499  0.00  0.00    +0.000 C 
ATOM      9  C5  UNL     1       1.164  57.669  72.058  0.00  0.00    +0.000 C 
ATOM     10  N1  UNL     1       2.113  57.664  71.108  0.00  0.00    +0.000 NA
ATOM     11  C6  UNL     1       2.462  58.855  70.562  0.00  0.00    +0.000 C 
ATOM     12  C7  UNL     1       1.876  60.083  70.869  0.00  0.00    +0.000 C 
BRANCH   7  14
ATOM     13  C1  UNL     1      -0.973  61.752  71.966  0.00  0.00    +0.000 C 
ATOM     14  C2  UNL     1       0.341  61.256  72.508  0.00  0.00    +0.000 C 
ATOM     15  O1  UNL     1       0.920  61.810  73.437  0.00  0.00    +0.000 OA
ENDBRANCH   7  14
ENDBRANCH   1  12
BRANCH   6  16
ATOM     16  C14 UNL     1       4.821  61.319  71.010  0.00  0.00    +0.000 C 
ATOM     17  N2  UNL     1       5.086  61.007  72.304  0.00  0.00    +0.000 N 
ATOM     18  O2  UNL     1       5.570  60.907  70.126  0.00  0.00    +0.000 OA
ATOM     19  H   UNL     1       4.493  61.332  73.019  0.00  0.00    +0.000 HD
ATOM     20  H   UNL     1       5.870  60.457  72.527  0.00  0.00    +0.000 HD
ENDBRANCH   6  16
TORSDOF 3
ENDMDL
MODEL 6
REMARK VINA RESULT:    -6.715      3.197      5.788
REMARK INTER + INTRA:          -8.280
REMARK INTER:                  -8.519
REMARK INTRA:                   0.239
REMARK UNBOUND:                -0.387
REMARK  Name = teste_hibrido_g3\Hibrido_G3_Top5.pdb
REMARK  5 active torsions:
REMARK  status: ('A' for Active; 'I' for Inactive)
REMARK    1  A    between atoms: C1_1  and  C2_2
REMARK    2  A    between atoms: C2_2  and  C3_4
REMARK    3  A    between atoms: C7_9  and  C8_10
REMARK    4  A    between atoms: C11_13  and  C12_14
REMARK    5  A    between atoms: C13_15  and  C14_16
REMARK                            x       y       z     vdW  Elec       q    Type
REMARK                         _______ _______ _______ _____ _____    ______ ____
ROOT
ATOM      1  C8  UNL     1       1.827  66.681  66.965  0.00  0.00    +0.000 C 
ATOM      2  C9  UNL     1       1.807  66.752  65.420  0.00  0.00    +0.000 C 
ATOM      3  C10 UNL     1       0.910  67.926  65.023  0.00  0.00    +0.000 C 
ATOM      4  C11 UNL     1       0.315  68.480  66.317  0.00  0.00    +0.000 C 
ATOM      5  C12 UNL     1      -1.073  67.898  66.591  0.00  0.00    +0.000 C 
ATOM      6  C13 UNL     1       1.335  68.085  67.399  0.00  0.00    +0.000 C 
ENDROOT
BRANCH   1  12
ATOM      7  C3  UNL     1       3.058  65.251  68.730  0.00  0.00    +0.000 C 
ATOM      8  C4  UNL     1       4.236  64.720  69.267  0.00  0.00    +0.000 C 
ATOM      9  C5  UNL     1       5.430  65.058  68.670  0.00  0.00    +0.000 C 
ATOM     10  N1  UNL     1       5.512  65.889  67.619  0.00  0.00    +0.000 NA
ATOM     11  C6  UNL     1       4.355  66.399  67.129  0.00  0.00    +0.000 C 
ATOM     12  C7  UNL     1       3.078  66.087  67.595  0.00  0.00    +0.000 C 
BRANCH   7  14
ATOM     13  C1  UNL     1       1.576  63.561  69.957  0.00  0.00    +0.000 C 
ATOM     14  C2  UNL     1       1.815  64.971  69.486  0.00  0.00    +0.000 C 
ATOM     15  O1  UNL     1       1.035  65.886  69.731  0.00  0.00    +0.000 OA
ENDBRANCH   7  14
ENDBRANCH   1  12
BRANCH   6  16
ATOM     16  C14 UNL     1       2.365  69.203  67.557  0.00  0.00    +0.000 C 
ATOM     17  N2  UNL     1       2.383  69.927  68.705  0.00  0.00    +0.000 N 
ATOM     18  O2  UNL     1       3.206  69.431  66.689  0.00  0.00    +0.000 OA
ATOM     19  H   UNL     1       1.715  69.754  69.407  0.00  0.00    +0.000 HD
ATOM     20  H   UNL     1       3.065  70.626  68.836  0.00  0.00    +0.000 HD
ENDBRANCH   6  16
TORSDOF 3
ENDMDL
MODEL 7
REMARK VINA RESULT:    -6.565      2.839      3.916
REMARK INTER + INTRA:          -8.104
REMARK INTER:                  -8.952
REMARK INTRA:                   0.849
REMARK UNBOUND:                -0.387
REMARK  Name = teste_hibrido_g3\Hibrido_G3_Top5.pdb
REMARK  5 active torsions:
REMARK  status: ('A' for Active; 'I' for Inactive)
REMARK    1  A    between atoms: C1_1  and  C2_2
REMARK    2  A    between atoms: C2_2  and  C3_4
REMARK    3  A    between atoms: C7_9  and  C8_10
REMARK    4  A    between atoms: C11_13  and  C12_14
REMARK    5  A    between atoms: C13_15  and  C14_16
REMARK                            x       y       z     vdW  Elec       q    Type
REMARK                         _______ _______ _______ _____ _____    ______ ____
ROOT
ATOM      1  C8  UNL     1       2.379  66.208  68.434  0.00  0.00    +0.000 C 
ATOM      2  C9  UNL     1       3.527  67.080  68.994  0.00  0.00    +0.000 C 
ATOM      3  C10 UNL     1       4.822  66.275  68.873  0.00  0.00    +0.000 C 
ATOM      4  C11 UNL     1       4.432  64.894  68.347  0.00  0.00    +0.000 C 
ATOM      5  C12 UNL     1       4.262  63.887  69.485  0.00  0.00    +0.000 C 
ATOM      6  C13 UNL     1       3.116  65.140  67.586  0.00  0.00    +0.000 C 
ENDROOT
BRANCH   1  12
ATOM      7  C3  UNL     1       1.287  68.231  67.256  0.00  0.00    +0.000 C 
ATOM      8  C4  UNL     1       0.164  68.873  66.720  0.00  0.00    +0.000 C 
ATOM      9  C5  UNL     1      -1.052  68.235  66.810  0.00  0.00    +0.000 C 
ATOM     10  N1  UNL     1      -1.210  67.043  67.408  0.00  0.00    +0.000 NA
ATOM     11  C6  UNL     1      -0.107  66.451  67.929  0.00  0.00    +0.000 C 
ATOM     12  C7  UNL     1       1.191  66.955  67.848  0.00  0.00    +0.000 C 
BRANCH   7  14
ATOM     13  C1  UNL     1       3.460  68.884  66.071  0.00  0.00    +0.000 C 
ATOM     14  C2  UNL     1       2.545  69.013  67.260  0.00  0.00    +0.000 C 
ATOM     15  O1  UNL     1       2.793  69.759  68.203  0.00  0.00    +0.000 OA
ENDBRANCH   7  14
ENDBRANCH   1  12
BRANCH   6  16
ATOM     16  C14 UNL     1       3.428  65.456  66.123  0.00  0.00    +0.000 C 
ATOM     17  N2  UNL     1       2.413  65.478  65.222  0.00  0.00    +0.000 N 
ATOM     18  O2  UNL     1       4.566  65.736  65.755  0.00  0.00    +0.000 OA
ATOM     19  H   UNL     1       1.497  65.256  65.507  0.00  0.00    +0.000 HD
ATOM     20  H   UNL     1       2.592  65.717  64.284  0.00  0.00    +0.000 HD
ENDBRANCH   6  16
TORSDOF 3
ENDMDL
MODEL 8
REMARK VINA RESULT:    -6.438     13.586     14.695
REMARK INTER + INTRA:          -7.954
REMARK INTER:                  -7.583
REMARK INTRA:                  -0.371
REMARK UNBOUND:                -0.387
REMARK  Name = teste_hibrido_g3\Hibrido_G3_Top5.pdb
REMARK  5 active torsions:
REMARK  status: ('A' for Active; 'I' for Inactive)
REMARK    1  A    between atoms: C1_1  and  C2_2
REMARK    2  A    between atoms: C2_2  and  C3_4
REMARK    3  A    between atoms: C7_9  and  C8_10
REMARK    4  A    between atoms: C11_13  and  C12_14
REMARK    5  A    between atoms: C13_15  and  C14_16
REMARK                            x       y       z     vdW  Elec       q    Type
REMARK                         _______ _______ _______ _____ _____    ______ ____
ROOT
ATOM      1  C8  UNL     1       6.144  80.208  65.231  0.00  0.00    +0.000 C 
ATOM      2  C9  UNL     1       6.363  79.437  66.554  0.00  0.00    +0.000 C 
ATOM      3  C10 UNL     1       7.711  79.876  67.128  0.00  0.00    +0.000 C 
ATOM      4  C11 UNL     1       8.338  80.819  66.102  0.00  0.00    +0.000 C 
ATOM      5  C12 UNL     1       9.308  80.080  65.180  0.00  0.00    +0.000 C 
ATOM      6  C13 UNL     1       7.134  81.396  65.337  0.00  0.00    +0.000 C 
ENDROOT
BRANCH   1  12
ATOM      7  C3  UNL     1       4.303  80.822  63.526  0.00  0.00    +0.000 C 
ATOM      8  C4  UNL     1       2.957  81.031  63.203  0.00  0.00    +0.000 C 
ATOM      9  C5  UNL     1       2.022  80.898  64.205  0.00  0.00    +0.000 C 
ATOM     10  N1  UNL     1       2.347  80.603  65.474  0.00  0.00    +0.000 NA
ATOM     11  C6  UNL     1       3.659  80.419  65.760  0.00  0.00    +0.000 C 
ATOM     12  C7  UNL     1       4.699  80.458  64.830  0.00  0.00    +0.000 C 
BRANCH   7  14
ATOM     13  C1  UNL     1       5.595  82.552  62.151  0.00  0.00    +0.000 C 
ATOM     14  C2  UNL     1       5.282  81.110  62.453  0.00  0.00    +0.000 C 
ATOM     15  O1  UNL     1       5.828  80.182  61.865  0.00  0.00    +0.000 OA
ENDBRANCH   7  14
ENDBRANCH   1  12
BRANCH   6  16
ATOM     16  C14 UNL     1       6.665  82.679  66.023  0.00  0.00    +0.000 C 
ATOM     17  N2  UNL     1       7.395  83.184  67.050  0.00  0.00    +0.000 N 
ATOM     18  O2  UNL     1       5.669  83.287  65.637  0.00  0.00    +0.000 OA
ATOM     19  H   UNL     1       8.194  82.705  67.368  0.00  0.00    +0.000 HD
ATOM     20  H   UNL     1       7.125  84.028  67.478  0.00  0.00    +0.000 HD
ENDBRANCH   6  16
TORSDOF 3
ENDMDL
MODEL 9
REMARK VINA RESULT:    -6.311      2.803      3.923
REMARK INTER + INTRA:          -7.805
REMARK INTER:                  -7.356
REMARK INTRA:                  -0.449
REMARK UNBOUND:                -0.387
REMARK  Name = teste_hibrido_g3\Hibrido_G3_Top5.pdb
REMARK  5 active torsions:
REMARK  status: ('A' for Active; 'I' for Inactive)
REMARK    1  A    between atoms: C1_1  and  C2_2
REMARK    2  A    between atoms: C2_2  and  C3_4
REMARK    3  A    between atoms: C7_9  and  C8_10
REMARK    4  A    between atoms: C11_13  and  C12_14
REMARK    5  A    between atoms: C13_15  and  C14_16
REMARK                            x       y       z     vdW  Elec       q    Type
REMARK                         _______ _______ _______ _____ _____    ______ ____
ROOT
ATOM      1  C8  UNL     1       2.780  66.226  68.104  0.00  0.00    +0.000 C 
ATOM      2  C9  UNL     1       3.771  65.934  69.255  0.00  0.00    +0.000 C 
ATOM      3  C10 UNL     1       4.646  64.755  68.826  0.00  0.00    +0.000 C 
ATOM      4  C11 UNL     1       4.109  64.280  67.476  0.00  0.00    +0.000 C 
ATOM      5  C12 UNL     1       3.135  63.113  67.639  0.00  0.00    +0.000 C 
ATOM      6  C13 UNL     1       3.429  65.526  66.882  0.00  0.00    +0.000 C 
ENDROOT
BRANCH   1  12
ATOM      7  C3  UNL     1       1.070  68.020  67.376  0.00  0.00    +0.000 C 
ATOM      8  C4  UNL     1       0.657  69.355  67.301  0.00  0.00    +0.000 C 
ATOM      9  C5  UNL     1       1.491  70.322  67.818  0.00  0.00    +0.000 C 
ATOM     10  N1  UNL     1       2.685  70.041  68.364  0.00  0.00    +0.000 NA
ATOM     11  C6  UNL     1       3.064  68.740  68.411  0.00  0.00    +0.000 C 
ATOM     12  C7  UNL     1       2.290  67.660  67.986  0.00  0.00    +0.000 C 
BRANCH   7  14
ATOM     13  C1  UNL     1      -1.010  66.528  67.414  0.00  0.00    +0.000 C 
ATOM     14  C2  UNL     1       0.208  67.032  66.686  0.00  0.00    +0.000 C 
ATOM     15  O1  UNL     1       0.486  66.677  65.545  0.00  0.00    +0.000 OA
ENDBRANCH   7  14
ENDBRANCH   1  12
BRANCH   6  16
ATOM     16  C14 UNL     1       4.443  66.309  66.047  0.00  0.00    +0.000 C 
ATOM     17  N2  UNL     1       4.003  67.047  64.996  0.00  0.00    +0.000 N 
ATOM     18  O2  UNL     1       5.638  66.321  66.333  0.00  0.00    +0.000 OA
ATOM     19  H   UNL     1       3.048  67.044  64.758  0.00  0.00    +0.000 HD
ATOM     20  H   UNL     1       4.639  67.585  64.472  0.00  0.00    +0.000 HD
ENDBRANCH   6  16
TORSDOF 3
ENDMDL
