MODEL 1
REMARK VINA RESULT:    -6.541      0.000      0.000
REMARK INTER + INTRA:         -10.244
REMARK INTER:                  -8.835
REMARK INTRA:                  -1.409
REMARK UNBOUND:                -1.409
REMARK  Name = teste_hibrido_g3\Hibrido_G3_Top4.pdb
REMARK  10 active torsions:
REMARK  status: ('A' for Active; 'I' for Inactive)
REMARK    1  A    between atoms: C1_1  and  C2_2
REMARK    2  A    between atoms: C2_2  and  C3_3
REMARK    3  A    between atoms: C3_3  and  C4_4
REMARK    4  A    between atoms: C3_3  and  C5_5
REMARK    5  A    between atoms: C5_5  and  C6_6
REMARK    6  A    between atoms: C6_6  and  C7_8
REMARK    7  A    between atoms: C8_9  and  C9_10
REMARK    8  A    between atoms: C12_13  and  C13_14
REMARK    9  A    between atoms: C17_19  and  C18_20
REMARK   10  A    between atoms: C18_20  and  C19_21
REMARK                            x       y       z     vdW  Elec       q    Type
REMARK                         _______ _______ _______ _____ _____    ______ ____
ROOT
ATOM      1  C7  UNL     1       2.204   0.895  18.786  0.00  0.00    +0.000 C 
ATOM      2  C8  UNL     1       1.942   2.037  17.780  0.00  0.00    +0.000 C 
ATOM      3  C9  UNL     1       2.142   3.463  18.260  0.00  0.00    +0.000 C 
ATOM      4  C10 UNL     1       0.549   1.754  17.226  0.00  0.00    +0.000 C 
ATOM      5  C11 UNL     1       0.537   0.238  17.086  0.00  0.00    +0.000 C 
ATOM      6  C12 UNL     1       1.271  -0.264  18.339  0.00  0.00    +0.000 C 
ENDROOT
BRANCH   6   7
ATOM      7  C13 UNL     1       1.871  -1.647  18.187  0.00  0.00    +0.000 C 
ATOM      8  C14 UNL     1       2.500  -1.948  16.976  0.00  0.00    +0.000 C 
ATOM      9  N1  UNL     1       3.075  -3.132  16.663  0.00  0.00    +0.000 NA
ATOM     10  C15 UNL     1       3.047  -4.091  17.603  0.00  0.00    +0.000 C 
ATOM     11  C16 UNL     1       2.467  -3.918  18.843  0.00  0.00    +0.000 C 
ATOM     12  C17 UNL     1       1.874  -2.682  19.135  0.00  0.00    +0.000 C 
BRANCH  12  13
ATOM     13  C18 UNL     1       1.304  -2.544  20.494  0.00  0.00    +0.000 C 
ATOM     14  C19 UNL     1       2.254  -2.256  21.627  0.00  0.00    +0.000 C 
ATOM     15  O2  UNL     1       0.093  -2.634  20.663  0.00  0.00    +0.000 OA
ENDBRANCH  12  13
ENDBRANCH   6   7
BRANCH   1  16
ATOM     16  C6  UNL     1       2.048   1.225  20.278  0.00  0.00    +0.000 C 
ATOM     17  O1  UNL     1       0.912   1.333  20.749  0.00  0.00    +0.000 OA
BRANCH  16  18
ATOM     18  C5  UNL     1       3.286   1.497  21.130  0.00  0.00    +0.000 C 
BRANCH  18  19
ATOM     19  C3  UNL     1       3.101   2.567  22.227  0.00  0.00    +0.000 C 
ATOM     20  C4  UNL     1       4.131   3.686  22.005  0.00  0.00    +0.000 C 
BRANCH  19  22
ATOM     21  C1  UNL     1       3.000   3.029  24.759  0.00  0.00    +0.000 C 
ATOM     22  C2  UNL     1       3.274   2.017  23.658  0.00  0.00    +0.000 C 
ENDBRANCH  19  22
ENDBRANCH  18  19
ENDBRANCH  16  18
ENDBRANCH   1  16
TORSDOF 6
ENDMDL
MODEL 2
REMARK VINA RESULT:    -6.425     23.784     25.685
REMARK INTER + INTRA:         -10.088
REMARK INTER:                  -8.496
REMARK INTRA:                  -1.592
REMARK UNBOUND:                -1.409
REMARK  Name = teste_hibrido_g3\Hibrido_G3_Top4.pdb
REMARK  10 active torsions:
REMARK  status: ('A' for Active; 'I' for Inactive)
REMARK    1  A    between atoms: C1_1  and  C2_2
REMARK    2  A    between atoms: C2_2  and  C3_3
REMARK    3  A    between atoms: C3_3  and  C4_4
REMARK    4  A    between atoms: C3_3  and  C5_5
REMARK    5  A    between atoms: C5_5  and  C6_6
REMARK    6  A    between atoms: C6_6  and  C7_8
REMARK    7  A    between atoms: C8_9  and  C9_10
REMARK    8  A    between atoms: C12_13  and  C13_14
REMARK    9  A    between atoms: C17_19  and  C18_20
REMARK   10  A    between atoms: C18_20  and  C19_21
REMARK                            x       y       z     vdW  Elec       q    Type
REMARK                         _______ _______ _______ _____ _____    ______ ____
ROOT
ATOM      1  C7  UNL     1      17.729  -8.796   1.362  0.00  0.00    +0.000 C 
ATOM      2  C8  UNL     1      16.201  -8.582   1.385  0.00  0.00    +0.000 C 
ATOM      3  C9  UNL     1      15.572  -7.835   0.223  0.00  0.00    +0.000 C 
ATOM      4  C10 UNL     1      15.915  -7.965   2.752  0.00  0.00    +0.000 C 
ATOM      5  C11 UNL     1      16.862  -8.721   3.674  0.00  0.00    +0.000 C 
ATOM      6  C12 UNL     1      18.154  -8.865   2.855  0.00  0.00    +0.000 C 
ENDROOT
BRANCH   6   7
ATOM      7  C13 UNL     1      19.036 -10.016   3.295  0.00  0.00    +0.000 C 
ATOM      8  C14 UNL     1      18.507 -11.306   3.199  0.00  0.00    +0.000 C 
ATOM      9  N1  UNL     1      19.145 -12.444   3.557  0.00  0.00    +0.000 NA
ATOM     10  C15 UNL     1      20.395 -12.319   4.034  0.00  0.00    +0.000 C 
ATOM     11  C16 UNL     1      21.034 -11.104   4.170  0.00  0.00    +0.000 C 
ATOM     12  C17 UNL     1      20.345  -9.943   3.795  0.00  0.00    +0.000 C 
BRANCH  12  13
ATOM     13  C18 UNL     1      21.097  -8.674   3.925  0.00  0.00    +0.000 C 
ATOM     14  C19 UNL     1      22.446  -8.588   3.262  0.00  0.00    +0.000 C 
ATOM     15  O2  UNL     1      20.605  -7.729   4.531  0.00  0.00    +0.000 OA
ENDBRANCH  12  13
ENDBRANCH   6   7
BRANCH   1  16
ATOM     16  C6  UNL     1      18.567  -7.785   0.565  0.00  0.00    +0.000 C 
ATOM     17  O1  UNL     1      18.460  -7.759  -0.665  0.00  0.00    +0.000 OA
BRANCH  16  18
ATOM     18  C5  UNL     1      19.573  -6.892   1.289  0.00  0.00    +0.000 C 
BRANCH  18  19
ATOM     19  C3  UNL     1      19.228  -5.388   1.293  0.00  0.00    +0.000 C 
ATOM     20  C4  UNL     1      20.248  -4.648   2.171  0.00  0.00    +0.000 C 
BRANCH  19  22
ATOM     21  C1  UNL     1      16.889  -4.424   0.812  0.00  0.00    +0.000 C 
ATOM     22  C2  UNL     1      17.811  -5.084   1.823  0.00  0.00    +0.000 C 
ENDBRANCH  19  22
ENDBRANCH  18  19
ENDBRANCH  16  18
ENDBRANCH   1  16
TORSDOF 6
ENDMDL
MODEL 3
REMARK VINA RESULT:    -6.352      1.586      2.017
REMARK INTER + INTRA:          -9.989
REMARK INTER:                  -8.576
REMARK INTRA:                  -1.413
REMARK UNBOUND:                -1.409
REMARK  Name = teste_hibrido_g3\Hibrido_G3_Top4.pdb
REMARK  10 active torsions:
REMARK  status: ('A' for Active; 'I' for Inactive)
REMARK    1  A    between atoms: C1_1  and  C2_2
REMARK    2  A    between atoms: C2_2  and  C3_3
REMARK    3  A    between atoms: C3_3  and  C4_4
REMARK    4  A    between atoms: C3_3  and  C5_5
REMARK    5  A    between atoms: C5_5  and  C6_6
REMARK    6  A    between atoms: C6_6  and  C7_8
REMARK    7  A    between atoms: C8_9  and  C9_10
REMARK    8  A    between atoms: C12_13  and  C13_14
REMARK    9  A    between atoms: C17_19  and  C18_20
REMARK   10  A    between atoms: C18_20  and  C19_21
REMARK                            x       y       z     vdW  Elec       q    Type
REMARK                         _______ _______ _______ _____ _____    ______ ____
ROOT
ATOM      1  C7  UNL     1       0.861   1.212  18.802  0.00  0.00    +0.000 C 
ATOM      2  C8  UNL     1      -0.587   1.743  18.720  0.00  0.00    +0.000 C 
ATOM      3  C9  UNL     1      -0.785   3.240  18.563  0.00  0.00    +0.000 C 
ATOM      4  C10 UNL     1      -1.291   1.144  19.934  0.00  0.00    +0.000 C 
ATOM      5  C11 UNL     1      -0.714  -0.264  20.004  0.00  0.00    +0.000 C 
ATOM      6  C12 UNL     1       0.772  -0.082  19.656  0.00  0.00    +0.000 C 
ENDROOT
BRANCH   6   7
ATOM      7  C13 UNL     1       1.436  -1.336  19.126  0.00  0.00    +0.000 C 
ATOM      8  C14 UNL     1       1.858  -1.328  17.793  0.00  0.00    +0.000 C 
ATOM      9  N1  UNL     1       2.455  -2.359  17.153  0.00  0.00    +0.000 NA
ATOM     10  C15 UNL     1       2.668  -3.478  17.865  0.00  0.00    +0.000 C 
ATOM     11  C16 UNL     1       2.308  -3.611  19.191  0.00  0.00    +0.000 C 
ATOM     12  C17 UNL     1       1.687  -2.527  19.825  0.00  0.00    +0.000 C 
BRANCH  12  13
ATOM     13  C18 UNL     1       1.361  -2.716  21.257  0.00  0.00    +0.000 C 
ATOM     14  C19 UNL     1       2.375  -2.259  22.272  0.00  0.00    +0.000 C 
ATOM     15  O2  UNL     1       0.283  -3.201  21.581  0.00  0.00    +0.000 OA
ENDBRANCH  12  13
ENDBRANCH   6   7
BRANCH   1  16
ATOM     16  C6  UNL     1       1.934   2.180  19.323  0.00  0.00    +0.000 C 
ATOM     17  O1  UNL     1       2.676   2.741  18.510  0.00  0.00    +0.000 OA
BRANCH  16  18
ATOM     18  C5  UNL     1       2.124   2.368  20.826  0.00  0.00    +0.000 C 
BRANCH  18  19
ATOM     19  C3  UNL     1       3.590   2.342  21.308  0.00  0.00    +0.000 C 
ATOM     20  C4  UNL     1       3.810   1.080  22.155  0.00  0.00    +0.000 C 
BRANCH  19  22
ATOM     21  C1  UNL     1       3.401   4.887  21.653  0.00  0.00    +0.000 C 
ATOM     22  C2  UNL     1       3.983   3.574  22.150  0.00  0.00    +0.000 C 
ENDBRANCH  19  22
ENDBRANCH  18  19
ENDBRANCH  16  18
ENDBRANCH   1  16
TORSDOF 6
ENDMDL
MODEL 4
REMARK VINA RESULT:    -6.238      1.389      2.187
REMARK INTER + INTRA:          -9.835
REMARK INTER:                  -8.055
REMARK INTRA:                  -1.780
REMARK UNBOUND:                -1.409
REMARK  Name = teste_hibrido_g3\Hibrido_G3_Top4.pdb
REMARK  10 active torsions:
REMARK  status: ('A' for Active; 'I' for Inactive)
REMARK    1  A    between atoms: C1_1  and  C2_2
REMARK    2  A    between atoms: C2_2  and  C3_3
REMARK    3  A    between atoms: C3_3  and  C4_4
REMARK    4  A    between atoms: C3_3  and  C5_5
REMARK    5  A    between atoms: C5_5  and  C6_6
REMARK    6  A    between atoms: C6_6  and  C7_8
REMARK    7  A    between atoms: C8_9  and  C9_10
REMARK    8  A    between atoms: C12_13  and  C13_14
REMARK    9  A    between atoms: C17_19  and  C18_20
REMARK   10  A    between atoms: C18_20  and  C19_21
REMARK                            x       y       z     vdW  Elec       q    Type
REMARK                         _______ _______ _______ _____ _____    ______ ____
ROOT
ATOM      1  C7  UNL     1       1.602   0.259  18.848  0.00  0.00    +0.000 C 
ATOM      2  C8  UNL     1       2.098   1.447  17.996  0.00  0.00    +0.000 C 
ATOM      3  C9  UNL     1       2.104   2.824  18.636  0.00  0.00    +0.000 C 
ATOM      4  C10 UNL     1       1.291   1.363  16.704  0.00  0.00    +0.000 C 
ATOM      5  C11 UNL     1       1.224  -0.135  16.439  0.00  0.00    +0.000 C 
ATOM      6  C12 UNL     1       1.016  -0.757  17.829  0.00  0.00    +0.000 C 
ENDROOT
BRANCH   6   7
ATOM      7  C13 UNL     1       1.457  -2.203  17.927  0.00  0.00    +0.000 C 
ATOM      8  C14 UNL     1       2.595  -2.580  17.209  0.00  0.00    +0.000 C 
ATOM      9  N1  UNL     1       3.121  -3.826  17.171  0.00  0.00    +0.000 NA
ATOM     10  C15 UNL     1       2.500  -4.773  17.894  0.00  0.00    +0.000 C 
ATOM     11  C16 UNL     1       1.374  -4.529  18.653  0.00  0.00    +0.000 C 
ATOM     12  C17 UNL     1       0.850  -3.229  18.669  0.00  0.00    +0.000 C 
BRANCH  12  13
ATOM     13  C18 UNL     1      -0.334  -3.020  19.532  0.00  0.00    +0.000 C 
ATOM     14  C19 UNL     1      -1.651  -2.737  18.859  0.00  0.00    +0.000 C 
ATOM     15  O2  UNL     1      -0.228  -3.109  20.750  0.00  0.00    +0.000 OA
ENDBRANCH  12  13
ENDBRANCH   6   7
BRANCH   1  16
ATOM     16  C6  UNL     1       0.619   0.574  19.986  0.00  0.00    +0.000 C 
ATOM     17  O1  UNL     1      -0.449   1.131  19.714  0.00  0.00    +0.000 OA
BRANCH  16  18
ATOM     18  C5  UNL     1       1.009   0.276  21.432  0.00  0.00    +0.000 C 
BRANCH  18  19
ATOM     19  C3  UNL     1       2.440  -0.270  21.623  0.00  0.00    +0.000 C 
ATOM     20  C4  UNL     1       2.362  -1.617  22.359  0.00  0.00    +0.000 C 
BRANCH  19  22
ATOM     21  C1  UNL     1       3.908   1.846  21.628  0.00  0.00    +0.000 C 
ATOM     22  C2  UNL     1       3.357   0.676  22.427  0.00  0.00    +0.000 C 
ENDBRANCH  19  22
ENDBRANCH  18  19
ENDBRANCH  16  18
ENDBRANCH   1  16
TORSDOF 6
ENDMDL
MODEL 5
REMARK VINA RESULT:    -6.111      2.670      4.324
REMARK INTER + INTRA:          -9.664
REMARK INTER:                  -8.121
REMARK INTRA:                  -1.543
REMARK UNBOUND:                -1.409
REMARK  Name = teste_hibrido_g3\Hibrido_G3_Top4.pdb
REMARK  10 active torsions:
REMARK  status: ('A' for Active; 'I' for Inactive)
REMARK    1  A    between atoms: C1_1  and  C2_2
REMARK    2  A    between atoms: C2_2  and  C3_3
REMARK    3  A    between atoms: C3_3  and  C4_4
REMARK    4  A    between atoms: C3_3  and  C5_5
REMARK    5  A    between atoms: C5_5  and  C6_6
REMARK    6  A    between atoms: C6_6  and  C7_8
REMARK    7  A    between atoms: C8_9  and  C9_10
REMARK    8  A    between atoms: C12_13  and  C13_14
REMARK    9  A    between atoms: C17_19  and  C18_20
REMARK   10  A    between atoms: C18_20  and  C19_21
REMARK                            x       y       z     vdW  Elec       q    Type
REMARK                         _______ _______ _______ _____ _____    ______ ____
ROOT
ATOM      1  C7  UNL     1       1.875   1.715  20.685  0.00  0.00    +0.000 C 
ATOM      2  C8  UNL     1       2.662   2.008  21.981  0.00  0.00    +0.000 C 
ATOM      3  C9  UNL     1       3.426   3.316  22.065  0.00  0.00    +0.000 C 
ATOM      4  C10 UNL     1       3.522   0.767  22.202  0.00  0.00    +0.000 C 
ATOM      5  C11 UNL     1       2.594  -0.371  21.798  0.00  0.00    +0.000 C 
ATOM      6  C12 UNL     1       1.853   0.166  20.562  0.00  0.00    +0.000 C 
ENDROOT
BRANCH   6   7
ATOM      7  C13 UNL     1       0.524  -0.512  20.300  0.00  0.00    +0.000 C 
ATOM      8  C14 UNL     1      -0.596  -0.017  20.974  0.00  0.00    +0.000 C 
ATOM      9  N1  UNL     1      -1.853  -0.506  20.871  0.00  0.00    +0.000 NA
ATOM     10  C15 UNL     1      -2.037  -1.547  20.042  0.00  0.00    +0.000 C 
ATOM     11  C16 UNL     1      -1.017  -2.122  19.312  0.00  0.00    +0.000 C 
ATOM     12  C17 UNL     1       0.275  -1.596  19.444  0.00  0.00    +0.000 C 
BRANCH  12  13
ATOM     13  C18 UNL     1       1.320  -2.228  18.606  0.00  0.00    +0.000 C 
ATOM     14  C19 UNL     1       2.070  -3.397  19.187  0.00  0.00    +0.000 C 
ATOM     15  O2  UNL     1       1.527  -1.817  17.471  0.00  0.00    +0.000 OA
ENDBRANCH  12  13
ENDBRANCH   6   7
BRANCH   1  16
ATOM     16  C6  UNL     1       2.367   2.393  19.398  0.00  0.00    +0.000 C 
ATOM     17  O1  UNL     1       3.309   1.887  18.779  0.00  0.00    +0.000 OA
BRANCH  16  18
ATOM     18  C5  UNL     1       1.748   3.716  18.950  0.00  0.00    +0.000 C 
BRANCH  18  19
ATOM     19  C3  UNL     1       0.628   4.255  19.865  0.00  0.00    +0.000 C 
ATOM     20  C4  UNL     1      -0.725   4.041  19.169  0.00  0.00    +0.000 C 
BRANCH  19  22
ATOM     21  C1  UNL     1       2.130   6.346  19.848  0.00  0.00    +0.000 C 
ATOM     22  C2  UNL     1       0.776   5.753  20.202  0.00  0.00    +0.000 C 
ENDBRANCH  19  22
ENDBRANCH  18  19
ENDBRANCH  16  18
ENDBRANCH   1  16
TORSDOF 6
ENDMDL
MODEL 6
REMARK VINA RESULT:    -6.060     22.145     24.749
REMARK INTER + INTRA:          -9.595
REMARK INTER:                  -7.405
REMARK INTRA:                  -2.191
REMARK UNBOUND:                -1.409
REMARK  Name = teste_hibrido_g3\Hibrido_G3_Top4.pdb
REMARK  10 active torsions:
REMARK  status: ('A' for Active; 'I' for Inactive)
REMARK    1  A    between atoms: C1_1  and  C2_2
REMARK    2  A    between atoms: C2_2  and  C3_3
REMARK    3  A    between atoms: C3_3  and  C4_4
REMARK    4  A    between atoms: C3_3  and  C5_5
REMARK    5  A    between atoms: C5_5  and  C6_6
REMARK    6  A    between atoms: C6_6  and  C7_8
REMARK    7  A    between atoms: C8_9  and  C9_10
REMARK    8  A    between atoms: C12_13  and  C13_14
REMARK    9  A    between atoms: C17_19  and  C18_20
REMARK   10  A    between atoms: C18_20  and  C19_21
REMARK                            x       y       z     vdW  Elec       q    Type
REMARK                         _______ _______ _______ _____ _____    ______ ____
ROOT
ATOM      1  C7  UNL     1      16.357  -5.819  -0.306  0.00  0.00    +0.000 C 
ATOM      2  C8  UNL     1      17.186  -6.093  -1.579  0.00  0.00    +0.000 C 
ATOM      3  C9  UNL     1      17.686  -7.508  -1.808  0.00  0.00    +0.000 C 
ATOM      4  C10 UNL     1      18.288  -5.038  -1.561  0.00  0.00    +0.000 C 
ATOM      5  C11 UNL     1      17.566  -3.797  -1.052  0.00  0.00    +0.000 C 
ATOM      6  C12 UNL     1      16.626  -4.329   0.042  0.00  0.00    +0.000 C 
ENDROOT
BRANCH   6   7
ATOM      7  C13 UNL     1      15.436  -3.432   0.317  0.00  0.00    +0.000 C 
ATOM      8  C14 UNL     1      14.637  -3.069  -0.771  0.00  0.00    +0.000 C 
ATOM      9  N1  UNL     1      13.548  -2.269  -0.712  0.00  0.00    +0.000 NA
ATOM     10  C15 UNL     1      13.203  -1.796   0.498  0.00  0.00    +0.000 C 
ATOM     11  C16 UNL     1      13.902  -2.087   1.651  0.00  0.00    +0.000 C 
ATOM     12  C17 UNL     1      15.028  -2.915   1.557  0.00  0.00    +0.000 C 
BRANCH  12  13
ATOM     13  C18 UNL     1      15.713  -3.224   2.833  0.00  0.00    +0.000 C 
ATOM     14  C19 UNL     1      16.768  -2.263   3.312  0.00  0.00    +0.000 C 
ATOM     15  O2  UNL     1      15.393  -4.218   3.475  0.00  0.00    +0.000 OA
ENDBRANCH  12  13
ENDBRANCH   6   7
BRANCH   1  16
ATOM     16  C6  UNL     1      16.589  -6.747   0.895  0.00  0.00    +0.000 C 
ATOM     17  O1  UNL     1      15.833  -7.710   1.059  0.00  0.00    +0.000 OA
BRANCH  16  18
ATOM     18  C5  UNL     1      17.685  -6.422   1.908  0.00  0.00    +0.000 C 
BRANCH  18  19
ATOM     19  C3  UNL     1      19.044  -7.102   1.639  0.00  0.00    +0.000 C 
ATOM     20  C4  UNL     1      19.316  -8.122   2.755  0.00  0.00    +0.000 C 
BRANCH  19  22
ATOM     21  C1  UNL     1      19.879  -4.693   2.002  0.00  0.00    +0.000 C 
ATOM     22  C2  UNL     1      20.226  -6.111   1.581  0.00  0.00    +0.000 C 
ENDBRANCH  19  22
ENDBRANCH  18  19
ENDBRANCH  16  18
ENDBRANCH   1  16
TORSDOF 6
ENDMDL
MODEL 7
REMARK VINA RESULT:    -6.020     22.375     24.656
REMARK INTER + INTRA:          -9.541
REMARK INTER:                  -7.599
REMARK INTRA:                  -1.942
REMARK UNBOUND:                -1.409
REMARK  Name = teste_hibrido_g3\Hibrido_G3_Top4.pdb
REMARK  10 active torsions:
REMARK  status: ('A' for Active; 'I' for Inactive)
REMARK    1  A    between atoms: C1_1  and  C2_2
REMARK    2  A    between atoms: C2_2  and  C3_3
REMARK    3  A    between atoms: C3_3  and  C4_4
REMARK    4  A    between atoms: C3_3  and  C5_5
REMARK    5  A    between atoms: C5_5  and  C6_6
REMARK    6  A    between atoms: C6_6  and  C7_8
REMARK    7  A    between atoms: C8_9  and  C9_10
REMARK    8  A    between atoms: C12_13  and  C13_14
REMARK    9  A    between atoms: C17_19  and  C18_20
REMARK   10  A    between atoms: C18_20  and  C19_21
REMARK                            x       y       z     vdW  Elec       q    Type
REMARK                         _______ _______ _______ _____ _____    ______ ____
ROOT
ATOM      1  C7  UNL     1      16.911  -7.657   2.322  0.00  0.00    +0.000 C 
ATOM      2  C8  UNL     1      16.255  -8.790   3.139  0.00  0.00    +0.000 C 
ATOM      3  C9  UNL     1      17.040 -10.076   3.324  0.00  0.00    +0.000 C 
ATOM      4  C10 UNL     1      14.882  -8.983   2.502  0.00  0.00    +0.000 C 
ATOM      5  C11 UNL     1      14.447  -7.559   2.187  0.00  0.00    +0.000 C 
ATOM      6  C12 UNL     1      15.729  -6.873   1.689  0.00  0.00    +0.000 C 
ENDROOT
BRANCH   6   7
ATOM      7  C13 UNL     1      15.713  -5.364   1.831  0.00  0.00    +0.000 C 
ATOM      8  C14 UNL     1      15.321  -4.837   3.064  0.00  0.00    +0.000 C 
ATOM      9  N1  UNL     1      15.236  -3.520   3.363  0.00  0.00    +0.000 NA
ATOM     10  C15 UNL     1      15.569  -2.652   2.394  0.00  0.00    +0.000 C 
ATOM     11  C16 UNL     1      15.982  -3.043   1.137  0.00  0.00    +0.000 C 
ATOM     12  C17 UNL     1      16.054  -4.414   0.856  0.00  0.00    +0.000 C 
BRANCH  12  13
ATOM     13  C18 UNL     1      16.542  -4.772  -0.495  0.00  0.00    +0.000 C 
ATOM     14  C19 UNL     1      18.031  -4.857  -0.703  0.00  0.00    +0.000 C 
ATOM     15  O2  UNL     1      15.741  -5.018  -1.391  0.00  0.00    +0.000 OA
ENDBRANCH  12  13
ENDBRANCH   6   7
BRANCH   1  16
ATOM     16  C6  UNL     1      17.964  -8.063   1.280  0.00  0.00    +0.000 C 
ATOM     17  O1  UNL     1      17.600  -8.678   0.272  0.00  0.00    +0.000 OA
BRANCH  16  18
ATOM     18  C5  UNL     1      19.442  -7.779   1.541  0.00  0.00    +0.000 C 
BRANCH  18  19
ATOM     19  C3  UNL     1      19.727  -6.862   2.749  0.00  0.00    +0.000 C 
ATOM     20  C4  UNL     1      20.261  -5.516   2.234  0.00  0.00    +0.000 C 
BRANCH  19  22
ATOM     21  C1  UNL     1      20.261  -8.667   4.507  0.00  0.00    +0.000 C 
ATOM     22  C2  UNL     1      20.753  -7.451   3.740  0.00  0.00    +0.000 C 
ENDBRANCH  19  22
ENDBRANCH  18  19
ENDBRANCH  16  18
ENDBRANCH   1  16
TORSDOF 6
ENDMDL
MODEL 8
REMARK VINA RESULT:    -5.972      2.487      4.791
REMARK INTER + INTRA:          -9.476
REMARK INTER:                  -7.279
REMARK INTRA:                  -2.198
REMARK UNBOUND:                -1.409
REMARK  Name = teste_hibrido_g3\Hibrido_G3_Top4.pdb
REMARK  10 active torsions:
REMARK  status: ('A' for Active; 'I' for Inactive)
REMARK    1  A    between atoms: C1_1  and  C2_2
REMARK    2  A    between atoms: C2_2  and  C3_3
REMARK    3  A    between atoms: C3_3  and  C4_4
REMARK    4  A    between atoms: C3_3  and  C5_5
REMARK    5  A    between atoms: C5_5  and  C6_6
REMARK    6  A    between atoms: C6_6  and  C7_8
REMARK    7  A    between atoms: C8_9  and  C9_10
REMARK    8  A    between atoms: C12_13  and  C13_14
REMARK    9  A    between atoms: C17_19  and  C18_20
REMARK   10  A    between atoms: C18_20  and  C19_21
REMARK                            x       y       z     vdW  Elec       q    Type
REMARK                         _______ _______ _______ _____ _____    ______ ____
ROOT
ATOM      1  C7  UNL     1       0.494   2.289  19.998  0.00  0.00    +0.000 C 
ATOM      2  C8  UNL     1       1.299   3.597  19.842  0.00  0.00    +0.000 C 
ATOM      3  C9  UNL     1       0.524   4.895  19.708  0.00  0.00    +0.000 C 
ATOM      4  C10 UNL     1       2.264   3.325  18.692  0.00  0.00    +0.000 C 
ATOM      5  C11 UNL     1       2.685   1.881  18.931  0.00  0.00    +0.000 C 
ATOM      6  C12 UNL     1       1.393   1.181  19.385  0.00  0.00    +0.000 C 
ENDROOT
BRANCH   6   7
ATOM      7  C13 UNL     1       1.629  -0.079  20.193  0.00  0.00    +0.000 C 
ATOM      8  C14 UNL     1       1.922   0.073  21.551  0.00  0.00    +0.000 C 
ATOM      9  N1  UNL     1       2.172  -0.936  22.417  0.00  0.00    +0.000 NA
ATOM     10  C15 UNL     1       2.122  -2.187  21.928  0.00  0.00    +0.000 C 
ATOM     11  C16 UNL     1       1.835  -2.472  20.609  0.00  0.00    +0.000 C 
ATOM     12  C17 UNL     1       1.585  -1.405  19.735  0.00  0.00    +0.000 C 
BRANCH  12  13
ATOM     13  C18 UNL     1       1.243  -1.775  18.343  0.00  0.00    +0.000 C 
ATOM     14  C19 UNL     1       2.368  -1.866  17.346  0.00  0.00    +0.000 C 
ATOM     15  O2  UNL     1       0.082  -2.024  18.042  0.00  0.00    +0.000 OA
ENDBRANCH  12  13
ENDBRANCH   6   7
BRANCH   1  16
ATOM     16  C6  UNL     1      -0.929   2.269  19.421  0.00  0.00    +0.000 C 
ATOM     17  O1  UNL     1      -1.877   2.554  20.160  0.00  0.00    +0.000 OA
BRANCH  16  18
ATOM     18  C5  UNL     1      -1.159   1.818  17.980  0.00  0.00    +0.000 C 
BRANCH  18  19
ATOM     19  C3  UNL     1      -0.883   2.893  16.907  0.00  0.00    +0.000 C 
ATOM     20  C4  UNL     1      -2.201   3.229  16.193  0.00  0.00    +0.000 C 
BRANCH  19  22
ATOM     21  C1  UNL     1       0.397   0.956  15.792  0.00  0.00    +0.000 C 
ATOM     22  C2  UNL     1       0.152   2.455  15.850  0.00  0.00    +0.000 C 
ENDBRANCH  19  22
ENDBRANCH  18  19
ENDBRANCH  16  18
ENDBRANCH   1  16
TORSDOF 6
ENDMDL
MODEL 9
REMARK VINA RESULT:    -5.968     22.749     25.051
REMARK INTER + INTRA:          -9.471
REMARK INTER:                  -7.378
REMARK INTRA:                  -2.093
REMARK UNBOUND:                -1.409
REMARK  Name = teste_hibrido_g3\Hibrido_G3_Top4.pdb
REMARK  10 active torsions:
REMARK  status: ('A' for Active; 'I' for Inactive)
REMARK    1  A    between atoms: C1_1  and  C2_2
REMARK    2  A    between atoms: C2_2  and  C3_3
REMARK    3  A    between atoms: C3_3  and  C4_4
REMARK    4  A    between atoms: C3_3  and  C5_5
REMARK    5  A    between atoms: C5_5  and  C6_6
REMARK    6  A    between atoms: C6_6  and  C7_8
REMARK    7  A    between atoms: C8_9  and  C9_10
REMARK    8  A    between atoms: C12_13  and  C13_14
REMARK    9  A    between atoms: C17_19  and  C18_20
REMARK   10  A    between atoms: C18_20  and  C19_21
REMARK                            x       y       z     vdW  Elec       q    Type
REMARK                         _______ _______ _______ _____ _____    ______ ____
ROOT
ATOM      1  C7  UNL     1      18.398  -5.619   1.120  0.00  0.00    +0.000 C 
ATOM      2  C8  UNL     1      18.565  -5.436  -0.404  0.00  0.00    +0.000 C 
ATOM      3  C9  UNL     1      18.024  -4.162  -1.028  0.00  0.00    +0.000 C 
ATOM      4  C10 UNL     1      18.002  -6.717  -1.013  0.00  0.00    +0.000 C 
ATOM      5  C11 UNL     1      18.480  -7.794  -0.049  0.00  0.00    +0.000 C 
ATOM      6  C12 UNL     1      18.323  -7.155   1.340  0.00  0.00    +0.000 C 
ENDROOT
BRANCH   6   7
ATOM      7  C13 UNL     1      19.211  -7.770   2.403  0.00  0.00    +0.000 C 
ATOM      8  C14 UNL     1      20.537  -7.331   2.467  0.00  0.00    +0.000 C 
ATOM      9  N1  UNL     1      21.469  -7.778   3.340  0.00  0.00    +0.000 NA
ATOM     10  C15 UNL     1      21.080  -8.712   4.224  0.00  0.00    +0.000 C 
ATOM     11  C16 UNL     1      19.798  -9.221   4.271  0.00  0.00    +0.000 C 
ATOM     12  C17 UNL     1      18.857  -8.742   3.351  0.00  0.00    +0.000 C 
BRANCH  12  13
ATOM     13  C18 UNL     1      17.489  -9.296   3.477  0.00  0.00    +0.000 C 
ATOM     14  C19 UNL     1      17.294 -10.756   3.164  0.00  0.00    +0.000 C 
ATOM     15  O2  UNL     1      16.570  -8.579   3.855  0.00  0.00    +0.000 OA
ENDBRANCH  12  13
ENDBRANCH   6   7
BRANCH   1  16
ATOM     16  C6  UNL     1      17.232  -4.878   1.792  0.00  0.00    +0.000 C 
ATOM     17  O1  UNL     1      17.438  -3.764   2.283  0.00  0.00    +0.000 OA
BRANCH  16  18
ATOM     18  C5  UNL     1      15.870  -5.558   1.918  0.00  0.00    +0.000 C 
BRANCH  18  19
ATOM     19  C3  UNL     1      14.921  -5.345   0.719  0.00  0.00    +0.000 C 
ATOM     20  C4  UNL     1      13.654  -4.629   1.212  0.00  0.00    +0.000 C 
BRANCH  19  22
ATOM     21  C1  UNL     1      14.724  -7.909   0.860  0.00  0.00    +0.000 C 
ATOM     22  C2  UNL     1      14.505  -6.659   0.025  0.00  0.00    +0.000 C 
ENDBRANCH  19  22
ENDBRANCH  18  19
ENDBRANCH  16  18
ENDBRANCH   1  16
TORSDOF 6
ENDMDL
