MODEL 1
REMARK VINA RESULT:    -6.294      0.000      0.000
REMARK INTER + INTRA:          -7.561
REMARK INTER:                  -7.397
REMARK INTRA:                  -0.164
REMARK UNBOUND:                -0.164
REMARK  Name = teste_hibrido_g3\Hibrido_G3_Top5.pdb
REMARK  5 active torsions:
REMARK  status: ('A' for Active; 'I' for Inactive)
REMARK    1  A    between atoms: C1_1  and  C2_2
REMARK    2  A    between atoms: C2_2  and  C3_4
REMARK    3  A    between atoms: C7_9  and  C8_10
REMARK    4  A    between atoms: C11_13  and  C12_14
REMARK    5  A    between atoms: C13_15  and  C14_16
REMARK                            x       y       z     vdW  Elec       q    Type
REMARK                         _______ _______ _______ _____ _____    ______ ____
ROOT
ATOM      1  C8  UNL     1      20.549  20.625  19.333  0.00  0.00    +0.000 C 
ATOM      2  C9  UNL     1      19.200  21.277  19.716  0.00  0.00    +0.000 C 
ATOM      3  C10 UNL     1      18.542  21.770  18.427  0.00  0.00    +0.000 C 
ATOM      4  C11 UNL     1      19.539  21.511  17.298  0.00  0.00    +0.000 C 
ATOM      5  C12 UNL     1      20.377  22.753  16.993  0.00  0.00    +0.000 C 
ATOM      6  C13 UNL     1      20.397  20.343  17.816  0.00  0.00    +0.000 C 
ENDROOT
BRANCH   1  12
ATOM      7  C3  UNL     1      22.348  18.974  20.176  0.00  0.00    +0.000 C 
ATOM      8  C4  UNL     1      22.771  17.975  21.061  0.00  0.00    +0.000 C 
ATOM      9  C5  UNL     1      21.878  17.527  22.009  0.00  0.00    +0.000 C 
ATOM     10  N1  UNL     1      20.620  17.987  22.101  0.00  0.00    +0.000 NA
ATOM     11  C6  UNL     1      20.234  18.944  21.223  0.00  0.00    +0.000 C 
ATOM     12  C7  UNL     1      21.055  19.532  20.260  0.00  0.00    +0.000 C 
BRANCH   7  14
ATOM     13  C1  UNL     1      23.639  18.260  18.084  0.00  0.00    +0.000 C 
ATOM     14  C2  UNL     1      23.293  19.325  19.091  0.00  0.00    +0.000 C 
ATOM     15  O1  UNL     1      23.742  20.465  19.022  0.00  0.00    +0.000 OA
ENDBRANCH   7  14
ENDBRANCH   1  12
BRANCH   6  16
ATOM     16  C14 UNL     1      19.770  19.019  17.379  0.00  0.00    +0.000 C 
ATOM     17  N2  UNL     1      18.734  19.037  16.501  0.00  0.00    +0.000 N 
ATOM     18  O2  UNL     1      20.211  17.940  17.767  0.00  0.00    +0.000 OA
ATOM     19  H   UNL     1      18.373  19.896  16.183  0.00  0.00    +0.000 HD
ATOM     20  H   UNL     1      18.344  18.191  16.183  0.00  0.00    +0.000 HD
ENDBRANCH   6  16
TORSDOF 3
ENDMDL
MODEL 2
REMARK VINA RESULT:    -6.157      2.464      4.569
REMARK INTER + INTRA:          -7.401
REMARK INTER:                  -6.999
REMARK INTRA:                  -0.402
REMARK UNBOUND:                -0.164
REMARK  Name = teste_hibrido_g3\Hibrido_G3_Top5.pdb
REMARK  5 active torsions:
REMARK  status: ('A' for Active; 'I' for Inactive)
REMARK    1  A    between atoms: C1_1  and  C2_2
REMARK    2  A    between atoms: C2_2  and  C3_4
REMARK    3  A    between atoms: C7_9  and  C8_10
REMARK    4  A    between atoms: C11_13  and  C12_14
REMARK    5  A    between atoms: C13_15  and  C14_16
REMARK                            x       y       z     vdW  Elec       q    Type
REMARK                         _______ _______ _______ _____ _____    ______ ____
ROOT
ATOM      1  C8  UNL     1      20.614  19.065  20.145  0.00  0.00    +0.000 C 
ATOM      2  C9  UNL     1      19.693  19.446  21.328  0.00  0.00    +0.000 C 
ATOM      3  C10 UNL     1      19.527  18.204  22.205  0.00  0.00    +0.000 C 
ATOM      4  C11 UNL     1      20.254  17.064  21.492  0.00  0.00    +0.000 C 
ATOM      5  C12 UNL     1      19.293  16.229  20.645  0.00  0.00    +0.000 C 
ATOM      6  C13 UNL     1      21.318  17.773  20.636  0.00  0.00    +0.000 C 
ENDROOT
BRANCH   1  12
ATOM      7  C3  UNL     1      22.027  20.127  18.262  0.00  0.00    +0.000 C 
ATOM      8  C4  UNL     1      22.765  21.198  17.744  0.00  0.00    +0.000 C 
ATOM      9  C5  UNL     1      22.923  22.317  18.530  0.00  0.00    +0.000 C 
ATOM     10  N1  UNL     1      22.423  22.414  19.773  0.00  0.00    +0.000 NA
ATOM     11  C6  UNL     1      21.724  21.356  20.253  0.00  0.00    +0.000 C 
ATOM     12  C7  UNL     1      21.434  20.193  19.540  0.00  0.00    +0.000 C 
BRANCH   7  14
ATOM     13  C1  UNL     1      20.825  18.684  16.522  0.00  0.00    +0.000 C 
ATOM     14  C2  UNL     1      22.001  18.896  17.439  0.00  0.00    +0.000 C 
ATOM     15  O1  UNL     1      22.937  18.105  17.501  0.00  0.00    +0.000 OA
ENDBRANCH   7  14
ENDBRANCH   1  12
BRANCH   6  16
ATOM     16  C14 UNL     1      22.610  17.908  21.442  0.00  0.00    +0.000 C 
ATOM     17  N2  UNL     1      22.563  17.779  22.793  0.00  0.00    +0.000 N 
ATOM     18  O2  UNL     1      23.695  18.085  20.892  0.00  0.00    +0.000 OA
ATOM     19  H   UNL     1      21.699  17.637  23.243  0.00  0.00    +0.000 HD
ATOM     20  H   UNL     1      23.392  17.827  23.321  0.00  0.00    +0.000 HD
ENDBRANCH   6  16
TORSDOF 3
ENDMDL
MODEL 3
REMARK VINA RESULT:    -5.962     28.676     30.588
REMARK INTER + INTRA:          -7.171
REMARK INTER:                  -6.608
REMARK INTRA:                  -0.563
REMARK UNBOUND:                -0.164
REMARK  Name = teste_hibrido_g3\Hibrido_G3_Top5.pdb
REMARK  5 active torsions:
REMARK  status: ('A' for Active; 'I' for Inactive)
REMARK    1  A    between atoms: C1_1  and  C2_2
REMARK    2  A    between atoms: C2_2  and  C3_4
REMARK    3  A    between atoms: C7_9  and  C8_10
REMARK    4  A    between atoms: C11_13  and  C12_14
REMARK    5  A    between atoms: C13_15  and  C14_16
REMARK                            x       y       z     vdW  Elec       q    Type
REMARK                         _______ _______ _______ _____ _____    ______ ____
ROOT
ATOM      1  C8  UNL     1      15.704  -5.218   1.555  0.00  0.00    +0.000 C 
ATOM      2  C9  UNL     1      14.188  -5.168   1.252  0.00  0.00    +0.000 C 
ATOM      3  C10 UNL     1      13.476  -4.716   2.528  0.00  0.00    +0.000 C 
ATOM      4  C11 UNL     1      14.548  -4.603   3.612  0.00  0.00    +0.000 C 
ATOM      5  C12 UNL     1      14.624  -5.873   4.460  0.00  0.00    +0.000 C 
ATOM      6  C13 UNL     1      15.848  -4.347   2.830  0.00  0.00    +0.000 C 
ENDROOT
BRANCH   1  12
ATOM      7  C3  UNL     1      18.032  -5.173   0.435  0.00  0.00    +0.000 C 
ATOM      8  C4  UNL     1      18.845  -4.963  -0.684  0.00  0.00    +0.000 C 
ATOM      9  C5  UNL     1      18.246  -4.547  -1.852  0.00  0.00    +0.000 C 
ATOM     10  N1  UNL     1      16.928  -4.312  -1.954  0.00  0.00    +0.000 NA
ATOM     11  C6  UNL     1      16.167  -4.511  -0.849  0.00  0.00    +0.000 C 
ATOM     12  C7  UNL     1      16.634  -4.993   0.373  0.00  0.00    +0.000 C 
BRANCH   7  14
ATOM     13  C1  UNL     1      18.810  -6.926   2.131  0.00  0.00    +0.000 C 
ATOM     14  C2  UNL     1      18.735  -5.485   1.701  0.00  0.00    +0.000 C 
ATOM     15  O1  UNL     1      19.256  -4.580   2.345  0.00  0.00    +0.000 OA
ENDBRANCH   7  14
ENDBRANCH   1  12
BRANCH   6  16
ATOM     16  C14 UNL     1      16.053  -2.841   2.665  0.00  0.00    +0.000 C 
ATOM     17  N2  UNL     1      17.245  -2.295   3.014  0.00  0.00    +0.000 N 
ATOM     18  O2  UNL     1      15.181  -2.123   2.181  0.00  0.00    +0.000 OA
ATOM     19  H   UNL     1      17.951  -2.861   3.403  0.00  0.00    +0.000 HD
ATOM     20  H   UNL     1      17.405  -1.333   2.880  0.00  0.00    +0.000 HD
ENDBRANCH   6  16
TORSDOF 3
ENDMDL
MODEL 4
REMARK VINA RESULT:    -5.944     29.188     30.922
REMARK INTER + INTRA:          -7.150
REMARK INTER:                  -6.673
REMARK INTRA:                  -0.477
REMARK UNBOUND:                -0.164
REMARK  Name = teste_hibrido_g3\Hibrido_G3_Top5.pdb
REMARK  5 active torsions:
REMARK  status: ('A' for Active; 'I' for Inactive)
REMARK    1  A    between atoms: C1_1  and  C2_2
REMARK    2  A    between atoms: C2_2  and  C3_4
REMARK    3  A    between atoms: C7_9  and  C8_10
REMARK    4  A    between atoms: C11_13  and  C12_14
REMARK    5  A    between atoms: C13_15  and  C14_16
REMARK                            x       y       z     vdW  Elec       q    Type
REMARK                         _______ _______ _______ _____ _____    ______ ____
ROOT
ATOM      1  C8  UNL     1      16.556  -4.978   2.267  0.00  0.00    +0.000 C 
ATOM      2  C9  UNL     1      15.161  -4.926   2.934  0.00  0.00    +0.000 C 
ATOM      3  C10 UNL     1      14.715  -3.463   2.959  0.00  0.00    +0.000 C 
ATOM      4  C11 UNL     1      15.880  -2.640   2.410  0.00  0.00    +0.000 C 
ATOM      5  C12 UNL     1      16.752  -2.083   3.536  0.00  0.00    +0.000 C 
ATOM      6  C13 UNL     1      16.648  -3.626   1.513  0.00  0.00    +0.000 C 
ENDROOT
BRANCH   1  12
ATOM      7  C3  UNL     1      18.179  -6.530   0.990  0.00  0.00    +0.000 C 
ATOM      8  C4  UNL     1      18.460  -7.743   0.349  0.00  0.00    +0.000 C 
ATOM      9  C5  UNL     1      17.452  -8.675   0.255  0.00  0.00    +0.000 C 
ATOM     10  N1  UNL     1      16.213  -8.462   0.726  0.00  0.00    +0.000 NA
ATOM     11  C6  UNL     1      15.966  -7.274   1.329  0.00  0.00    +0.000 C 
ATOM     12  C7  UNL     1      16.911  -6.272   1.551  0.00  0.00    +0.000 C 
BRANCH   7  14
ATOM     13  C1  UNL     1      20.185  -5.413   2.121  0.00  0.00    +0.000 C 
ATOM     14  C2  UNL     1      19.249  -5.507   0.946  0.00  0.00    +0.000 C 
ATOM     15  O1  UNL     1      19.363  -4.791  -0.044  0.00  0.00    +0.000 OA
ENDBRANCH   7  14
ENDBRANCH   1  12
BRANCH   6  16
ATOM     16  C14 UNL     1      16.102  -3.547   0.088  0.00  0.00    +0.000 C 
ATOM     17  N2  UNL     1      16.875  -3.002  -0.886  0.00  0.00    +0.000 N 
ATOM     18  O2  UNL     1      14.999  -4.006  -0.205  0.00  0.00    +0.000 OA
ATOM     19  H   UNL     1      17.759  -2.632  -0.663  0.00  0.00    +0.000 HD
ATOM     20  H   UNL     1      16.551  -2.978  -1.816  0.00  0.00    +0.000 HD
ENDBRANCH   6  16
TORSDOF 3
ENDMDL
MODEL 5
REMARK VINA RESULT:    -5.932     25.158     26.396
REMARK INTER + INTRA:          -7.136
REMARK INTER:                  -6.577
REMARK INTRA:                  -0.559
REMARK UNBOUND:                -0.164
REMARK  Name = teste_hibrido_g3\Hibrido_G3_Top5.pdb
REMARK  5 active torsions:
REMARK  status: ('A' for Active; 'I' for Inactive)
REMARK    1  A    between atoms: C1_1  and  C2_2
REMARK    2  A    between atoms: C2_2  and  C3_4
REMARK    3  A    between atoms: C7_9  and  C8_10
REMARK    4  A    between atoms: C11_13  and  C12_14
REMARK    5  A    between atoms: C13_15  and  C14_16
REMARK                            x       y       z     vdW  Elec       q    Type
REMARK                         _______ _______ _______ _____ _____    ______ ____
ROOT
ATOM      1  C8  UNL     1       0.771   2.366  20.491  0.00  0.00    +0.000 C 
ATOM      2  C9  UNL     1      -0.640   2.577  19.895  0.00  0.00    +0.000 C 
ATOM      3  C10 UNL     1      -0.612   3.874  19.084  0.00  0.00    +0.000 C 
ATOM      4  C11 UNL     1       0.774   4.485  19.286  0.00  0.00    +0.000 C 
ATOM      5  C12 UNL     1       0.768   5.532  20.400  0.00  0.00    +0.000 C 
ATOM      6  C13 UNL     1       1.671   3.282  19.623  0.00  0.00    +0.000 C 
ENDROOT
BRANCH   1  12
ATOM      7  C3  UNL     1       2.270   0.563  21.575  0.00  0.00    +0.000 C 
ATOM      8  C4  UNL     1       2.603  -0.779  21.795  0.00  0.00    +0.000 C 
ATOM      9  C5  UNL     1       1.852  -1.745  21.163  0.00  0.00    +0.000 C 
ATOM     10  N1  UNL     1       0.839  -1.455  20.332  0.00  0.00    +0.000 NA
ATOM     11  C6  UNL     1       0.548  -0.147  20.128  0.00  0.00    +0.000 C 
ATOM     12  C7  UNL     1       1.182   0.926  20.754  0.00  0.00    +0.000 C 
BRANCH   7  14
ATOM     13  C1  UNL     1       2.955   1.985  23.591  0.00  0.00    +0.000 C 
ATOM     14  C2  UNL     1       3.188   1.566  22.164  0.00  0.00    +0.000 C 
ATOM     15  O1  UNL     1       4.119   2.003  21.494  0.00  0.00    +0.000 OA
ENDBRANCH   7  14
ENDBRANCH   1  12
BRANCH   6  16
ATOM     16  C14 UNL     1       2.263   2.712  18.333  0.00  0.00    +0.000 C 
ATOM     17  N2  UNL     1       3.370   1.930  18.403  0.00  0.00    +0.000 N 
ATOM     18  O2  UNL     1       1.732   2.908  17.241  0.00  0.00    +0.000 OA
ATOM     19  H   UNL     1       3.803   1.767  19.272  0.00  0.00    +0.000 HD
ATOM     20  H   UNL     1       3.740   1.527  17.585  0.00  0.00    +0.000 HD
ENDBRANCH   6  16
TORSDOF 3
ENDMDL
MODEL 6
REMARK VINA RESULT:    -5.813     29.061     30.313
REMARK INTER + INTRA:          -6.996
REMARK INTER:                  -6.604
REMARK INTRA:                  -0.392
REMARK UNBOUND:                -0.164
REMARK  Name = teste_hibrido_g3\Hibrido_G3_Top5.pdb
REMARK  5 active torsions:
REMARK  status: ('A' for Active; 'I' for Inactive)
REMARK    1  A    between atoms: C1_1  and  C2_2
REMARK    2  A    between atoms: C2_2  and  C3_4
REMARK    3  A    between atoms: C7_9  and  C8_10
REMARK    4  A    between atoms: C11_13  and  C12_14
REMARK    5  A    between atoms: C13_15  and  C14_16
REMARK                            x       y       z     vdW  Elec       q    Type
REMARK                         _______ _______ _______ _____ _____    ______ ____
ROOT
ATOM      1  C8  UNL     1      -0.849  -0.743  19.428  0.00  0.00    +0.000 C 
ATOM      2  C9  UNL     1      -1.465   0.676  19.432  0.00  0.00    +0.000 C 
ATOM      3  C10 UNL     1      -2.906   0.557  18.934  0.00  0.00    +0.000 C 
ATOM      4  C11 UNL     1      -3.112  -0.903  18.533  0.00  0.00    +0.000 C 
ATOM      5  C12 UNL     1      -2.891  -1.110  17.034  0.00  0.00    +0.000 C 
ATOM      6  C13 UNL     1      -2.088  -1.675  19.384  0.00  0.00    +0.000 C 
ENDROOT
BRANCH   1  12
ATOM      7  C3  UNL     1       1.166  -2.074  20.344  0.00  0.00    +0.000 C 
ATOM      8  C4  UNL     1       2.176  -2.262  21.295  0.00  0.00    +0.000 C 
ATOM      9  C5  UNL     1       2.246  -1.379  22.350  0.00  0.00    +0.000 C 
ATOM     10  N1  UNL     1       1.377  -0.369  22.516  0.00  0.00    +0.000 NA
ATOM     11  C6  UNL     1       0.402  -0.220  21.586  0.00  0.00    +0.000 C 
ATOM     12  C7  UNL     1       0.258  -0.999  20.438  0.00  0.00    +0.000 C 
BRANCH   7  14
ATOM     13  C1  UNL     1       1.786  -2.927  18.011  0.00  0.00    +0.000 C 
ATOM     14  C2  UNL     1       1.045  -3.125  19.307  0.00  0.00    +0.000 C 
ATOM     15  O1  UNL     1       0.379  -4.130  19.536  0.00  0.00    +0.000 OA
ENDBRANCH   7  14
ENDBRANCH   1  12
BRANCH   6  16
ATOM     16  C14 UNL     1      -2.735  -2.090  20.705  0.00  0.00    +0.000 C 
ATOM     17  N2  UNL     1      -4.066  -1.889  20.880  0.00  0.00    +0.000 N 
ATOM     18  O2  UNL     1      -2.089  -2.643  21.592  0.00  0.00    +0.000 OA
ATOM     19  H   UNL     1      -4.594  -1.447  20.176  0.00  0.00    +0.000 HD
ATOM     20  H   UNL     1      -4.504  -2.184  21.711  0.00  0.00    +0.000 HD
ENDBRANCH   6  16
TORSDOF 3
ENDMDL
MODEL 7
REMARK VINA RESULT:    -5.762     28.977     30.821
REMARK INTER + INTRA:          -6.937
REMARK INTER:                  -6.621
REMARK INTRA:                  -0.316
REMARK UNBOUND:                -0.164
REMARK  Name = teste_hibrido_g3\Hibrido_G3_Top5.pdb
REMARK  5 active torsions:
REMARK  status: ('A' for Active; 'I' for Inactive)
REMARK    1  A    between atoms: C1_1  and  C2_2
REMARK    2  A    between atoms: C2_2  and  C3_4
REMARK    3  A    between atoms: C7_9  and  C8_10
REMARK    4  A    between atoms: C11_13  and  C12_14
REMARK    5  A    between atoms: C13_15  and  C14_16
REMARK                            x       y       z     vdW  Elec       q    Type
REMARK                         _______ _______ _______ _____ _____    ______ ____
ROOT
ATOM      1  C8  UNL     1      16.791  -5.533   0.657  0.00  0.00    +0.000 C 
ATOM      2  C9  UNL     1      17.013  -6.836  -0.145  0.00  0.00    +0.000 C 
ATOM      3  C10 UNL     1      18.310  -6.674  -0.940  0.00  0.00    +0.000 C 
ATOM      4  C11 UNL     1      18.798  -5.247  -0.698  0.00  0.00    +0.000 C 
ATOM      5  C12 UNL     1      18.346  -4.303  -1.813  0.00  0.00    +0.000 C 
ATOM      6  C13 UNL     1      18.192  -4.868   0.665  0.00  0.00    +0.000 C 
ENDROOT
BRANCH   1  12
ATOM      7  C3  UNL     1      15.489  -4.566   2.668  0.00  0.00    +0.000 C 
ATOM      8  C4  UNL     1      14.763  -4.741   3.852  0.00  0.00    +0.000 C 
ATOM      9  C5  UNL     1      14.590  -6.024   4.323  0.00  0.00    +0.000 C 
ATOM     10  N1  UNL     1      15.104  -7.102   3.710  0.00  0.00    +0.000 NA
ATOM     11  C6  UNL     1      15.813  -6.900   2.573  0.00  0.00    +0.000 C 
ATOM     12  C7  UNL     1      16.007  -5.666   1.953  0.00  0.00    +0.000 C 
BRANCH   7  14
ATOM     13  C1  UNL     1      16.720  -2.369   3.129  0.00  0.00    +0.000 C 
ATOM     14  C2  UNL     1      15.767  -3.165   2.276  0.00  0.00    +0.000 C 
ATOM     15  O1  UNL     1      15.246  -2.702   1.267  0.00  0.00    +0.000 OA
ENDBRANCH   7  14
ENDBRANCH   1  12
BRANCH   6  16
ATOM     16  C14 UNL     1      19.171  -5.244   1.778  0.00  0.00    +0.000 C 
ATOM     17  N2  UNL     1      19.987  -4.288   2.290  0.00  0.00    +0.000 N 
ATOM     18  O2  UNL     1      19.204  -6.379   2.249  0.00  0.00    +0.000 OA
ATOM     19  H   UNL     1      19.969  -3.376   1.920  0.00  0.00    +0.000 HD
ATOM     20  H   UNL     1      20.596  -4.506   3.031  0.00  0.00    +0.000 HD
ENDBRANCH   6  16
TORSDOF 3
ENDMDL
MODEL 8
REMARK VINA RESULT:    -5.706     31.241     32.847
REMARK INTER + INTRA:          -6.871
REMARK INTER:                  -6.349
REMARK INTRA:                  -0.522
REMARK UNBOUND:                -0.164
REMARK  Name = teste_hibrido_g3\Hibrido_G3_Top5.pdb
REMARK  5 active torsions:
REMARK  status: ('A' for Active; 'I' for Inactive)
REMARK    1  A    between atoms: C1_1  and  C2_2
REMARK    2  A    between atoms: C2_2  and  C3_4
REMARK    3  A    between atoms: C7_9  and  C8_10
REMARK    4  A    between atoms: C11_13  and  C12_14
REMARK    5  A    between atoms: C13_15  and  C14_16
REMARK                            x       y       z     vdW  Elec       q    Type
REMARK                         _______ _______ _______ _____ _____    ______ ____
ROOT
ATOM      1  C8  UNL     1      17.533  -8.028   2.682  0.00  0.00    +0.000 C 
ATOM      2  C9  UNL     1      16.427  -8.717   3.516  0.00  0.00    +0.000 C 
ATOM      3  C10 UNL     1      15.195  -8.862   2.622  0.00  0.00    +0.000 C 
ATOM      4  C11 UNL     1      15.528  -8.168   1.301  0.00  0.00    +0.000 C 
ATOM      5  C12 UNL     1      15.007  -6.730   1.277  0.00  0.00    +0.000 C 
ATOM      6  C13 UNL     1      17.063  -8.233   1.219  0.00  0.00    +0.000 C 
ENDROOT
BRANCH   1  12
ATOM      7  C3  UNL     1      20.080  -7.600   2.633  0.00  0.00    +0.000 C 
ATOM      8  C4  UNL     1      21.382  -7.929   3.028  0.00  0.00    +0.000 C 
ATOM      9  C5  UNL     1      21.555  -9.028   3.838  0.00  0.00    +0.000 C 
ATOM     10  N1  UNL     1      20.538  -9.806   4.243  0.00  0.00    +0.000 NA
ATOM     11  C6  UNL     1      19.290  -9.470   3.834  0.00  0.00    +0.000 C 
ATOM     12  C7  UNL     1      18.967  -8.348   3.070  0.00  0.00    +0.000 C 
BRANCH   7  14
ATOM     13  C1  UNL     1      19.928  -5.085   2.178  0.00  0.00    +0.000 C 
ATOM     14  C2  UNL     1      19.956  -6.496   1.653  0.00  0.00    +0.000 C 
ATOM     15  O1  UNL     1      19.909  -6.752   0.454  0.00  0.00    +0.000 OA
ENDBRANCH   7  14
ENDBRANCH   1  12
BRANCH   6  16
ATOM     16  C14 UNL     1      17.479  -9.512   0.491  0.00  0.00    +0.000 C 
ATOM     17  N2  UNL     1      18.386  -9.433  -0.515  0.00  0.00    +0.000 N 
ATOM     18  O2  UNL     1      17.045 -10.612   0.827  0.00  0.00    +0.000 OA
ATOM     19  H   UNL     1      18.739  -8.557  -0.792  0.00  0.00    +0.000 HD
ATOM     20  H   UNL     1      18.691 -10.252  -0.968  0.00  0.00    +0.000 HD
ENDBRANCH   6  16
TORSDOF 3
ENDMDL
MODEL 9
REMARK VINA RESULT:    -5.658     28.563     30.052
REMARK INTER + INTRA:          -6.814
REMARK INTER:                  -6.398
REMARK INTRA:                  -0.416
REMARK UNBOUND:                -0.164
REMARK  Name = teste_hibrido_g3\Hibrido_G3_Top5.pdb
REMARK  5 active torsions:
REMARK  status: ('A' for Active; 'I' for Inactive)
REMARK    1  A    between atoms: C1_1  and  C2_2
REMARK    2  A    between atoms: C2_2  and  C3_4
REMARK    3  A    between atoms: C7_9  and  C8_10
REMARK    4  A    between atoms: C11_13  and  C12_14
REMARK    5  A    between atoms: C13_15  and  C14_16
REMARK                            x       y       z     vdW  Elec       q    Type
REMARK                         _______ _______ _______ _____ _____    ______ ____
ROOT
ATOM      1  C8  UNL     1       1.378  -1.960  19.950  0.00  0.00    +0.000 C 
ATOM      2  C9  UNL     1       2.292  -2.829  20.845  0.00  0.00    +0.000 C 
ATOM      3  C10 UNL     1       2.226  -2.262  22.264  0.00  0.00    +0.000 C 
ATOM      4  C11 UNL     1       1.364  -1.001  22.192  0.00  0.00    +0.000 C 
ATOM      5  C12 UNL     1       2.222   0.256  22.049  0.00  0.00    +0.000 C 
ATOM      6  C13 UNL     1       0.462  -1.232  20.967  0.00  0.00    +0.000 C 
ENDROOT
BRANCH   1  12
ATOM      7  C3  UNL     1       0.384  -1.970  17.566  0.00  0.00    +0.000 C 
ATOM      8  C4  UNL     1      -0.163  -2.652  16.473  0.00  0.00    +0.000 C 
ATOM      9  C5  UNL     1      -0.342  -4.013  16.582  0.00  0.00    +0.000 C 
ATOM     10  N1  UNL     1      -0.041  -4.703  17.693  0.00  0.00    +0.000 NA
ATOM     11  C6  UNL     1       0.475  -4.014  18.740  0.00  0.00    +0.000 C 
ATOM     12  C7  UNL     1       0.769  -2.650  18.740  0.00  0.00    +0.000 C 
BRANCH   7  14
ATOM     13  C1  UNL     1       1.673   0.133  16.880  0.00  0.00    +0.000 C 
ATOM     14  C2  UNL     1       0.430  -0.494  17.455  0.00  0.00    +0.000 C 
ATOM     15  O1  UNL     1      -0.541   0.172  17.802  0.00  0.00    +0.000 OA
ENDBRANCH   7  14
ENDBRANCH   1  12
BRANCH   6  16
ATOM     16  C14 UNL     1      -0.829  -1.921  21.411  0.00  0.00    +0.000 C 
ATOM     17  N2  UNL     1      -1.999  -1.235  21.347  0.00  0.00    +0.000 N 
ATOM     18  O2  UNL     1      -0.838  -3.094  21.779  0.00  0.00    +0.000 OA
ATOM     19  H   UNL     1      -2.003  -0.296  21.054  0.00  0.00    +0.000 HD
ATOM     20  H   UNL     1      -2.843  -1.678  21.595  0.00  0.00    +0.000 HD
ENDBRANCH   6  16
TORSDOF 3
ENDMDL
