MODEL 1
REMARK VINA RESULT:    -6.300      0.000      0.000
REMARK INTER + INTRA:         -10.051
REMARK INTER:                  -8.326
REMARK INTRA:                  -1.724
REMARK UNBOUND:                -1.724
REMARK  Name = teste_hibrido_g3\Hibrido_G3_Top9.pdb
REMARK  11 active torsions:
REMARK  status: ('A' for Active; 'I' for Inactive)
REMARK    1  A    between atoms: C1_1  and  C2_2
REMARK    2  A    between atoms: C4_4  and  C5_5
REMARK    3  A    between atoms: N1_6  and  O1_7
REMARK    4  A    between atoms: C6_8  and  C7_9
REMARK    5  A    between atoms: C10_12  and  C11_13
REMARK    6  A    between atoms: C12_14  and  C13_15
REMARK    7  A    between atoms: C13_15  and  C14_17
REMARK    8  A    between atoms: C14_17  and  C15_18
REMARK    9  A    between atoms: C15_18  and  C16_19
REMARK   10  A    between atoms: C15_18  and  C17_20
REMARK   11  A    between atoms: C18_21  and  C19_22
REMARK                            x       y       z     vdW  Elec       q    Type
REMARK                         _______ _______ _______ _____ _____    ______ ____
ROOT
ATOM      1  C1  UNL     1       3.782   3.815  24.265  0.00  0.00    +0.000 C 
ATOM      2  C2  UNL     1       3.218   3.173  23.035  0.00  0.00    +0.000 C 
ATOM      3  C3  UNL     1       3.069   1.806  22.965  0.00  0.00    +0.000 C 
ATOM      4  C4  UNL     1       2.547   1.256  21.794  0.00  0.00    +0.000 C 
ATOM      5  C6  UNL     1       2.149   2.065  20.704  0.00  0.00    +0.000 C 
ATOM      6  C18 UNL     1       2.361   3.445  20.869  0.00  0.00    +0.000 C 
ATOM      7  C19 UNL     1       2.088   4.485  19.819  0.00  0.00    +0.000 C 
ATOM      8  N2  UNL     1       2.869   3.981  22.013  0.00  0.00    +0.000 NA
ENDROOT
BRANCH   5   9
ATOM      9  C7  UNL     1       1.554   1.432  19.456  0.00  0.00    +0.000 C 
ATOM     10  C8  UNL     1       2.527   1.240  18.274  0.00  0.00    +0.000 C 
ATOM     11  C9  UNL     1       1.857   1.894  17.070  0.00  0.00    +0.000 C 
ATOM     12  C10 UNL     1       0.365   1.813  17.383  0.00  0.00    +0.000 C 
ATOM     13  C11 UNL     1      -0.462   2.756  16.520  0.00  0.00    +0.000 C 
ATOM     14  C12 UNL     1       0.314   2.152  18.882  0.00  0.00    +0.000 C 
BRANCH  14  15
ATOM     15  C13 UNL     1      -0.964   1.669  19.561  0.00  0.00    +0.000 C 
ATOM     16  O2  UNL     1      -1.154   0.482  19.820  0.00  0.00    +0.000 OA
BRANCH  15  17
ATOM     17  C14 UNL     1      -1.974   2.733  19.965  0.00  0.00    +0.000 C 
BRANCH  17  18
ATOM     18  C15 UNL     1      -1.473   4.151  19.664  0.00  0.00    +0.000 C 
ATOM     19  C16 UNL     1      -1.360   4.981  20.944  0.00  0.00    +0.000 C 
ATOM     20  C17 UNL     1      -2.418   4.841  18.678  0.00  0.00    +0.000 C 
ENDBRANCH  17  18
ENDBRANCH  15  17
ENDBRANCH  14  15
ENDBRANCH   5   9
BRANCH   4  21
ATOM     21  C5  UNL     1       2.372  -0.215  21.783  0.00  0.00    +0.000 C 
ATOM     22  N1  UNL     1       1.292  -0.891  22.043  0.00  0.00    +0.000 NA
BRANCH  22  23
ATOM     23  O1  UNL     1       0.227  -0.066  22.425  0.00  0.00    +0.000 OA
ATOM     24  H   UNL     1      -0.633  -0.426  22.520  0.00  0.00    +0.000 HD
ENDBRANCH  22  23
ENDBRANCH   4  21
TORSDOF 6
ENDMDL
MODEL 2
REMARK VINA RESULT:    -6.261      1.414      2.464
REMARK INTER + INTRA:          -9.998
REMARK INTER:                  -8.598
REMARK INTRA:                  -1.401
REMARK UNBOUND:                -1.724
REMARK  Name = teste_hibrido_g3\Hibrido_G3_Top9.pdb
REMARK  11 active torsions:
REMARK  status: ('A' for Active; 'I' for Inactive)
REMARK    1  A    between atoms: C1_1  and  C2_2
REMARK    2  A    between atoms: C4_4  and  C5_5
REMARK    3  A    between atoms: N1_6  and  O1_7
REMARK    4  A    between atoms: C6_8  and  C7_9
REMARK    5  A    between atoms: C10_12  and  C11_13
REMARK    6  A    between atoms: C12_14  and  C13_15
REMARK    7  A    between atoms: C13_15  and  C14_17
REMARK    8  A    between atoms: C14_17  and  C15_18
REMARK    9  A    between atoms: C15_18  and  C16_19
REMARK   10  A    between atoms: C15_18  and  C17_20
REMARK   11  A    between atoms: C18_21  and  C19_22
REMARK                            x       y       z     vdW  Elec       q    Type
REMARK                         _______ _______ _______ _____ _____    ______ ____
ROOT
ATOM      1  C1  UNL     1       3.759   4.055  24.545  0.00  0.00    +0.000 C 
ATOM      2  C2  UNL     1       3.290   3.433  23.266  0.00  0.00    +0.000 C 
ATOM      3  C3  UNL     1       3.248   2.064  23.127  0.00  0.00    +0.000 C 
ATOM      4  C4  UNL     1       2.812   1.534  21.913  0.00  0.00    +0.000 C 
ATOM      5  C6  UNL     1       2.392   2.363  20.846  0.00  0.00    +0.000 C 
ATOM      6  C18 UNL     1       2.493   3.746  21.082  0.00  0.00    +0.000 C 
ATOM      7  C19 UNL     1       2.179   4.812  20.072  0.00  0.00    +0.000 C 
ATOM      8  N2  UNL     1       2.918   4.262  22.269  0.00  0.00    +0.000 NA
ENDROOT
BRANCH   5   9
ATOM      9  C7  UNL     1       1.893   1.749  19.548  0.00  0.00    +0.000 C 
ATOM     10  C8  UNL     1       2.754   2.029  18.299  0.00  0.00    +0.000 C 
ATOM     11  C9  UNL     1       1.800   2.597  17.252  0.00  0.00    +0.000 C 
ATOM     12  C10 UNL     1       0.441   2.014  17.630  0.00  0.00    +0.000 C 
ATOM     13  C11 UNL     1      -0.714   2.758  16.974  0.00  0.00    +0.000 C 
ATOM     14  C12 UNL     1       0.442   2.116  19.164  0.00  0.00    +0.000 C 
BRANCH  14  15
ATOM     15  C13 UNL     1      -0.556   1.172  19.827  0.00  0.00    +0.000 C 
ATOM     16  O2  UNL     1      -1.500   1.588  20.497  0.00  0.00    +0.000 OA
BRANCH  15  17
ATOM     17  C14 UNL     1      -0.371  -0.316  19.571  0.00  0.00    +0.000 C 
BRANCH  17  18
ATOM     18  C15 UNL     1      -1.535  -0.917  18.774  0.00  0.00    +0.000 C 
ATOM     19  C16 UNL     1      -2.084  -2.172  19.456  0.00  0.00    +0.000 C 
ATOM     20  C17 UNL     1      -1.077  -1.254  17.353  0.00  0.00    +0.000 C 
ENDBRANCH  17  18
ENDBRANCH  15  17
ENDBRANCH  14  15
ENDBRANCH   5   9
BRANCH   4  21
ATOM     21  C5  UNL     1       2.750   0.056  21.828  0.00  0.00    +0.000 C 
ATOM     22  N1  UNL     1       1.810  -0.729  22.266  0.00  0.00    +0.000 NA
BRANCH  22  23
ATOM     23  O1  UNL     1       0.800  -0.027  22.934  0.00  0.00    +0.000 OA
ATOM     24  H   UNL     1      -0.038   0.086  22.530  0.00  0.00    +0.000 HD
ENDBRANCH  22  23
ENDBRANCH   4  21
TORSDOF 6
ENDMDL
MODEL 3
REMARK VINA RESULT:    -6.156     25.663     27.438
REMARK INTER + INTRA:          -9.859
REMARK INTER:                  -8.172
REMARK INTRA:                  -1.688
REMARK UNBOUND:                -1.724
REMARK  Name = teste_hibrido_g3\Hibrido_G3_Top9.pdb
REMARK  11 active torsions:
REMARK  status: ('A' for Active; 'I' for Inactive)
REMARK    1  A    between atoms: C1_1  and  C2_2
REMARK    2  A    between atoms: C4_4  and  C5_5
REMARK    3  A    between atoms: N1_6  and  O1_7
REMARK    4  A    between atoms: C6_8  and  C7_9
REMARK    5  A    between atoms: C10_12  and  C11_13
REMARK    6  A    between atoms: C12_14  and  C13_15
REMARK    7  A    between atoms: C13_15  and  C14_17
REMARK    8  A    between atoms: C14_17  and  C15_18
REMARK    9  A    between atoms: C15_18  and  C16_19
REMARK   10  A    between atoms: C15_18  and  C17_20
REMARK   11  A    between atoms: C18_21  and  C19_22
REMARK                            x       y       z     vdW  Elec       q    Type
REMARK                         _______ _______ _______ _____ _____    ______ ____
ROOT
ATOM      1  C1  UNL     1      21.667 -10.192   4.569  0.00  0.00    +0.000 C 
ATOM      2  C2  UNL     1      20.504  -9.483   3.947  0.00  0.00    +0.000 C 
ATOM      3  C3  UNL     1      20.624  -8.176   3.528  0.00  0.00    +0.000 C 
ATOM      4  C4  UNL     1      19.510  -7.557   2.962  0.00  0.00    +0.000 C 
ATOM      5  C6  UNL     1      18.285  -8.243   2.788  0.00  0.00    +0.000 C 
ATOM      6  C18 UNL     1      18.261  -9.565   3.266  0.00  0.00    +0.000 C 
ATOM      7  C19 UNL     1      17.052 -10.457   3.259  0.00  0.00    +0.000 C 
ATOM      8  N2  UNL     1      19.351 -10.169   3.817  0.00  0.00    +0.000 NA
ENDROOT
BRANCH   5   9
ATOM      9  C7  UNL     1      17.101  -7.544   2.137  0.00  0.00    +0.000 C 
ATOM     10  C8  UNL     1      15.848  -7.386   3.023  0.00  0.00    +0.000 C 
ATOM     11  C9  UNL     1      14.690  -7.969   2.218  0.00  0.00    +0.000 C 
ATOM     12  C10 UNL     1      15.125  -7.802   0.765  0.00  0.00    +0.000 C 
ATOM     13  C11 UNL     1      14.315  -8.671  -0.188  0.00  0.00    +0.000 C 
ATOM     14  C12 UNL     1      16.617  -8.172   0.811  0.00  0.00    +0.000 C 
BRANCH  14  15
ATOM     15  C13 UNL     1      17.406  -7.626  -0.374  0.00  0.00    +0.000 C 
ATOM     16  O2  UNL     1      18.397  -8.203  -0.819  0.00  0.00    +0.000 OA
BRANCH  15  17
ATOM     17  C14 UNL     1      16.874  -6.359  -1.030  0.00  0.00    +0.000 C 
BRANCH  17  18
ATOM     18  C15 UNL     1      17.522  -5.093  -0.454  0.00  0.00    +0.000 C 
ATOM     19  C16 UNL     1      16.514  -4.275   0.355  0.00  0.00    +0.000 C 
ATOM     20  C17 UNL     1      18.098  -4.240  -1.586  0.00  0.00    +0.000 C 
ENDBRANCH  17  18
ENDBRANCH  15  17
ENDBRANCH  14  15
ENDBRANCH   5   9
BRANCH   4  21
ATOM     21  C5  UNL     1      19.702  -6.164   2.495  0.00  0.00    +0.000 C 
ATOM     22  N1  UNL     1      20.225  -5.765   1.373  0.00  0.00    +0.000 NA
BRANCH  22  23
ATOM     23  O1  UNL     1      20.689  -6.831   0.593  0.00  0.00    +0.000 OA
ATOM     24  H   UNL     1      20.185  -7.131  -0.137  0.00  0.00    +0.000 HD
ENDBRANCH  22  23
ENDBRANCH   4  21
TORSDOF 6
ENDMDL
MODEL 4
REMARK VINA RESULT:    -6.007      3.816      5.555
REMARK INTER + INTRA:          -9.663
REMARK INTER:                  -8.630
REMARK INTRA:                  -1.033
REMARK UNBOUND:                -1.724
REMARK  Name = teste_hibrido_g3\Hibrido_G3_Top9.pdb
REMARK  11 active torsions:
REMARK  status: ('A' for Active; 'I' for Inactive)
REMARK    1  A    between atoms: C1_1  and  C2_2
REMARK    2  A    between atoms: C4_4  and  C5_5
REMARK    3  A    between atoms: N1_6  and  O1_7
REMARK    4  A    between atoms: C6_8  and  C7_9
REMARK    5  A    between atoms: C10_12  and  C11_13
REMARK    6  A    between atoms: C12_14  and  C13_15
REMARK    7  A    between atoms: C13_15  and  C14_17
REMARK    8  A    between atoms: C14_17  and  C15_18
REMARK    9  A    between atoms: C15_18  and  C16_19
REMARK   10  A    between atoms: C15_18  and  C17_20
REMARK   11  A    between atoms: C18_21  and  C19_22
REMARK                            x       y       z     vdW  Elec       q    Type
REMARK                         _______ _______ _______ _____ _____    ______ ____
ROOT
ATOM      1  C1  UNL     1       3.080   1.510  22.884  0.00  0.00    +0.000 C 
ATOM      2  C2  UNL     1       2.524   0.685  21.764  0.00  0.00    +0.000 C 
ATOM      3  C3  UNL     1       2.080  -0.598  21.994  0.00  0.00    +0.000 C 
ATOM      4  C4  UNL     1       1.578  -1.328  20.916  0.00  0.00    +0.000 C 
ATOM      5  C6  UNL     1       1.493  -0.775  19.617  0.00  0.00    +0.000 C 
ATOM      6  C18 UNL     1       1.991   0.533  19.485  0.00  0.00    +0.000 C 
ATOM      7  C19 UNL     1       2.074   1.292  18.191  0.00  0.00    +0.000 C 
ATOM      8  N2  UNL     1       2.479   1.246  20.538  0.00  0.00    +0.000 NA
ENDROOT
BRANCH   5   9
ATOM      9  C7  UNL     1       0.911  -1.590  18.473  0.00  0.00    +0.000 C 
ATOM     10  C8  UNL     1      -0.630  -1.626  18.393  0.00  0.00    +0.000 C 
ATOM     11  C9  UNL     1      -1.012  -3.102  18.340  0.00  0.00    +0.000 C 
ATOM     12  C10 UNL     1       0.208  -3.782  17.725  0.00  0.00    +0.000 C 
ATOM     13  C11 UNL     1       0.209  -5.288  17.950  0.00  0.00    +0.000 C 
ATOM     14  C12 UNL     1       1.381  -3.061  18.410  0.00  0.00    +0.000 C 
BRANCH  14  15
ATOM     15  C13 UNL     1       2.692  -3.185  17.640  0.00  0.00    +0.000 C 
ATOM     16  O2  UNL     1       3.486  -4.101  17.849  0.00  0.00    +0.000 OA
BRANCH  15  17
ATOM     17  C14 UNL     1       2.948  -2.156  16.548  0.00  0.00    +0.000 C 
BRANCH  17  18
ATOM     18  C15 UNL     1       2.336  -2.572  15.205  0.00  0.00    +0.000 C 
ATOM     19  C16 UNL     1       3.406  -2.673  14.116  0.00  0.00    +0.000 C 
ATOM     20  C17 UNL     1       1.261  -1.567  14.788  0.00  0.00    +0.000 C 
ENDBRANCH  17  18
ENDBRANCH  15  17
ENDBRANCH  14  15
ENDBRANCH   5   9
BRANCH   4  21
ATOM     21  C5  UNL     1       1.080  -2.689  21.223  0.00  0.00    +0.000 C 
ATOM     22  N1  UNL     1      -0.110  -3.031  21.622  0.00  0.00    +0.000 NA
BRANCH  22  23
ATOM     23  O1  UNL     1      -0.945  -1.924  21.814  0.00  0.00    +0.000 OA
ATOM     24  H   UNL     1      -1.826  -2.047  22.109  0.00  0.00    +0.000 HD
ENDBRANCH  22  23
ENDBRANCH   4  21
TORSDOF 6
ENDMDL
MODEL 5
REMARK VINA RESULT:    -5.859     25.408     27.815
REMARK INTER + INTRA:          -9.467
REMARK INTER:                  -7.533
REMARK INTRA:                  -1.934
REMARK UNBOUND:                -1.724
REMARK  Name = teste_hibrido_g3\Hibrido_G3_Top9.pdb
REMARK  11 active torsions:
REMARK  status: ('A' for Active; 'I' for Inactive)
REMARK    1  A    between atoms: C1_1  and  C2_2
REMARK    2  A    between atoms: C4_4  and  C5_5
REMARK    3  A    between atoms: N1_6  and  O1_7
REMARK    4  A    between atoms: C6_8  and  C7_9
REMARK    5  A    between atoms: C10_12  and  C11_13
REMARK    6  A    between atoms: C12_14  and  C13_15
REMARK    7  A    between atoms: C13_15  and  C14_17
REMARK    8  A    between atoms: C14_17  and  C15_18
REMARK    9  A    between atoms: C15_18  and  C16_19
REMARK   10  A    between atoms: C15_18  and  C17_20
REMARK   11  A    between atoms: C18_21  and  C19_22
REMARK                            x       y       z     vdW  Elec       q    Type
REMARK                         _______ _______ _______ _____ _____    ______ ____
ROOT
ATOM      1  C1  UNL     1      21.851  -9.764   4.346  0.00  0.00    +0.000 C 
ATOM      2  C2  UNL     1      20.607  -9.190   3.742  0.00  0.00    +0.000 C 
ATOM      3  C3  UNL     1      20.611  -7.925   3.200  0.00  0.00    +0.000 C 
ATOM      4  C4  UNL     1      19.424  -7.433   2.655  0.00  0.00    +0.000 C 
ATOM      5  C6  UNL     1      18.240  -8.208   2.627  0.00  0.00    +0.000 C 
ATOM      6  C18 UNL     1      18.337  -9.478   3.223  0.00  0.00    +0.000 C 
ATOM      7  C19 UNL     1      17.194 -10.441   3.378  0.00  0.00    +0.000 C 
ATOM      8  N2  UNL     1      19.497  -9.957   3.752  0.00  0.00    +0.000 NA
ENDROOT
BRANCH   5   9
ATOM      9  C7  UNL     1      16.974  -7.650   1.997  0.00  0.00    +0.000 C 
ATOM     10  C8  UNL     1      15.892  -7.166   2.985  0.00  0.00    +0.000 C 
ATOM     11  C9  UNL     1      14.606  -7.879   2.579  0.00  0.00    +0.000 C 
ATOM     12  C10 UNL     1      14.789  -8.163   1.091  0.00  0.00    +0.000 C 
ATOM     13  C11 UNL     1      13.816  -9.213   0.575  0.00  0.00    +0.000 C 
ATOM     14  C12 UNL     1      16.262  -8.599   1.006  0.00  0.00    +0.000 C 
BRANCH  14  15
ATOM     15  C13 UNL     1      16.845  -8.465  -0.396  0.00  0.00    +0.000 C 
ATOM     16  O2  UNL     1      17.070  -7.369  -0.907  0.00  0.00    +0.000 OA
BRANCH  15  17
ATOM     17  C14 UNL     1      17.200  -9.756  -1.120  0.00  0.00    +0.000 C 
BRANCH  17  18
ATOM     18  C15 UNL     1      16.966 -10.994  -0.246  0.00  0.00    +0.000 C 
ATOM     19  C16 UNL     1      18.276 -11.737   0.024  0.00  0.00    +0.000 C 
ATOM     20  C17 UNL     1      15.965 -11.931  -0.924  0.00  0.00    +0.000 C 
ENDBRANCH  17  18
ENDBRANCH  15  17
ENDBRANCH  14  15
ENDBRANCH   5   9
BRANCH   4  21
ATOM     21  C5  UNL     1      19.491  -6.082   2.053  0.00  0.00    +0.000 C 
ATOM     22  N1  UNL     1      19.698  -5.775   0.806  0.00  0.00    +0.000 NA
BRANCH  22  23
ATOM     23  O1  UNL     1      19.933  -6.904   0.012  0.00  0.00    +0.000 OA
ATOM     24  H   UNL     1      19.251  -7.242  -0.534  0.00  0.00    +0.000 HD
ENDBRANCH  22  23
ENDBRANCH   4  21
TORSDOF 6
ENDMDL
MODEL 6
REMARK VINA RESULT:    -5.813      3.051      4.249
REMARK INTER + INTRA:          -9.407
REMARK INTER:                  -7.538
REMARK INTRA:                  -1.868
REMARK UNBOUND:                -1.724
REMARK  Name = teste_hibrido_g3\Hibrido_G3_Top9.pdb
REMARK  11 active torsions:
REMARK  status: ('A' for Active; 'I' for Inactive)
REMARK    1  A    between atoms: C1_1  and  C2_2
REMARK    2  A    between atoms: C4_4  and  C5_5
REMARK    3  A    between atoms: N1_6  and  O1_7
REMARK    4  A    between atoms: C6_8  and  C7_9
REMARK    5  A    between atoms: C10_12  and  C11_13
REMARK    6  A    between atoms: C12_14  and  C13_15
REMARK    7  A    between atoms: C13_15  and  C14_17
REMARK    8  A    between atoms: C14_17  and  C15_18
REMARK    9  A    between atoms: C15_18  and  C16_19
REMARK   10  A    between atoms: C15_18  and  C17_20
REMARK   11  A    between atoms: C18_21  and  C19_22
REMARK                            x       y       z     vdW  Elec       q    Type
REMARK                         _______ _______ _______ _____ _____    ______ ____
ROOT
ATOM      1  C1  UNL     1       2.418  -2.630  22.526  0.00  0.00    +0.000 C 
ATOM      2  C2  UNL     1       2.079  -1.983  21.218  0.00  0.00    +0.000 C 
ATOM      3  C3  UNL     1       1.934  -2.742  20.079  0.00  0.00    +0.000 C 
ATOM      4  C4  UNL     1       1.626  -2.091  18.884  0.00  0.00    +0.000 C 
ATOM      5  C6  UNL     1       1.435  -0.691  18.827  0.00  0.00    +0.000 C 
ATOM      6  C18 UNL     1       1.625  -0.007  20.040  0.00  0.00    +0.000 C 
ATOM      7  C19 UNL     1       1.552   1.485  20.203  0.00  0.00    +0.000 C 
ATOM      8  N2  UNL     1       1.925  -0.644  21.206  0.00  0.00    +0.000 NA
ENDROOT
BRANCH   5   9
ATOM      9  C7  UNL     1       1.069  -0.021  17.512  0.00  0.00    +0.000 C 
ATOM     10  C8  UNL     1       2.087   1.008  16.978  0.00  0.00    +0.000 C 
ATOM     11  C9  UNL     1       1.295   2.286  16.719  0.00  0.00    +0.000 C 
ATOM     12  C10 UNL     1      -0.126   1.797  16.450  0.00  0.00    +0.000 C 
ATOM     13  C11 UNL     1      -1.157   2.911  16.567  0.00  0.00    +0.000 C 
ATOM     14  C12 UNL     1      -0.307   0.684  17.496  0.00  0.00    +0.000 C 
BRANCH  14  15
ATOM     15  C13 UNL     1      -1.420  -0.296  17.141  0.00  0.00    +0.000 C 
ATOM     16  O2  UNL     1      -1.444  -0.893  16.066  0.00  0.00    +0.000 OA
BRANCH  15  17
ATOM     17  C14 UNL     1      -2.476  -0.553  18.207  0.00  0.00    +0.000 C 
BRANCH  17  18
ATOM     18  C15 UNL     1      -2.117   0.098  19.548  0.00  0.00    +0.000 C 
ATOM     19  C16 UNL     1      -1.930  -0.955  20.642  0.00  0.00    +0.000 C 
ATOM     20  C17 UNL     1      -3.209   1.088  19.957  0.00  0.00    +0.000 C 
ENDBRANCH  17  18
ENDBRANCH  15  17
ENDBRANCH  14  15
ENDBRANCH   5   9
BRANCH   4  21
ATOM     21  C5  UNL     1       1.445  -2.957  17.695  0.00  0.00    +0.000 C 
ATOM     22  N1  UNL     1       2.366  -3.447  16.919  0.00  0.00    +0.000 NA
BRANCH  22  23
ATOM     23  O1  UNL     1       3.649  -3.016  17.278  0.00  0.00    +0.000 OA
ATOM     24  H   UNL     1       4.361  -3.114  16.677  0.00  0.00    +0.000 HD
ENDBRANCH  22  23
ENDBRANCH   4  21
TORSDOF 6
ENDMDL
MODEL 7
REMARK VINA RESULT:    -5.702     24.162     26.751
REMARK INTER + INTRA:          -9.260
REMARK INTER:                  -7.351
REMARK INTRA:                  -1.909
REMARK UNBOUND:                -1.724
REMARK  Name = teste_hibrido_g3\Hibrido_G3_Top9.pdb
REMARK  11 active torsions:
REMARK  status: ('A' for Active; 'I' for Inactive)
REMARK    1  A    between atoms: C1_1  and  C2_2
REMARK    2  A    between atoms: C4_4  and  C5_5
REMARK    3  A    between atoms: N1_6  and  O1_7
REMARK    4  A    between atoms: C6_8  and  C7_9
REMARK    5  A    between atoms: C10_12  and  C11_13
REMARK    6  A    between atoms: C12_14  and  C13_15
REMARK    7  A    between atoms: C13_15  and  C14_17
REMARK    8  A    between atoms: C14_17  and  C15_18
REMARK    9  A    between atoms: C15_18  and  C16_19
REMARK   10  A    between atoms: C15_18  and  C17_20
REMARK   11  A    between atoms: C18_21  and  C19_22
REMARK                            x       y       z     vdW  Elec       q    Type
REMARK                         _______ _______ _______ _____ _____    ______ ____
ROOT
ATOM      1  C1  UNL     1      17.842  -7.940  -3.478  0.00  0.00    +0.000 C 
ATOM      2  C2  UNL     1      17.580  -7.534  -2.060  0.00  0.00    +0.000 C 
ATOM      3  C3  UNL     1      18.557  -6.907  -1.320  0.00  0.00    +0.000 C 
ATOM      4  C4  UNL     1      18.267  -6.556  -0.001  0.00  0.00    +0.000 C 
ATOM      5  C6  UNL     1      16.998  -6.806   0.573  0.00  0.00    +0.000 C 
ATOM      6  C18 UNL     1      16.079  -7.469  -0.259  0.00  0.00    +0.000 C 
ATOM      7  C19 UNL     1      14.704  -7.904   0.160  0.00  0.00    +0.000 C 
ATOM      8  N2  UNL     1      16.364  -7.808  -1.547  0.00  0.00    +0.000 NA
ENDROOT
BRANCH   5   9
ATOM      9  C7  UNL     1      16.709  -6.381   2.004  0.00  0.00    +0.000 C 
ATOM     10  C8  UNL     1      16.373  -7.522   2.987  0.00  0.00    +0.000 C 
ATOM     11  C9  UNL     1      15.051  -7.134   3.643  0.00  0.00    +0.000 C 
ATOM     12  C10 UNL     1      15.030  -5.610   3.568  0.00  0.00    +0.000 C 
ATOM     13  C11 UNL     1      13.639  -5.036   3.794  0.00  0.00    +0.000 C 
ATOM     14  C12 UNL     1      15.586  -5.330   2.162  0.00  0.00    +0.000 C 
BRANCH  14  15
ATOM     15  C13 UNL     1      16.134  -3.916   2.005  0.00  0.00    +0.000 C 
ATOM     16  O2  UNL     1      16.989  -3.461   2.763  0.00  0.00    +0.000 OA
BRANCH  15  17
ATOM     17  C14 UNL     1      15.620  -3.105   0.824  0.00  0.00    +0.000 C 
BRANCH  17  18
ATOM     18  C15 UNL     1      14.691  -3.924  -0.081  0.00  0.00    +0.000 C 
ATOM     19  C16 UNL     1      15.307  -4.129  -1.466  0.00  0.00    +0.000 C 
ATOM     20  C17 UNL     1      13.337  -3.225  -0.210  0.00  0.00    +0.000 C 
ENDBRANCH  17  18
ENDBRANCH  15  17
ENDBRANCH  14  15
ENDBRANCH   5   9
BRANCH   4  21
ATOM     21  C5  UNL     1      19.338  -5.851   0.739  0.00  0.00    +0.000 C 
ATOM     22  N1  UNL     1      20.281  -6.373   1.467  0.00  0.00    +0.000 NA
BRANCH  22  23
ATOM     23  O1  UNL     1      20.172  -7.766   1.559  0.00  0.00    +0.000 OA
ATOM     24  H   UNL     1      20.674  -8.234   2.197  0.00  0.00    +0.000 HD
ENDBRANCH  22  23
ENDBRANCH   4  21
TORSDOF 6
ENDMDL
MODEL 8
REMARK VINA RESULT:    -5.693     26.418     29.146
REMARK INTER + INTRA:          -9.247
REMARK INTER:                  -8.690
REMARK INTRA:                  -0.558
REMARK UNBOUND:                -1.724
REMARK  Name = teste_hibrido_g3\Hibrido_G3_Top9.pdb
REMARK  11 active torsions:
REMARK  status: ('A' for Active; 'I' for Inactive)
REMARK    1  A    between atoms: C1_1  and  C2_2
REMARK    2  A    between atoms: C4_4  and  C5_5
REMARK    3  A    between atoms: N1_6  and  O1_7
REMARK    4  A    between atoms: C6_8  and  C7_9
REMARK    5  A    between atoms: C10_12  and  C11_13
REMARK    6  A    between atoms: C12_14  and  C13_15
REMARK    7  A    between atoms: C13_15  and  C14_17
REMARK    8  A    between atoms: C14_17  and  C15_18
REMARK    9  A    between atoms: C15_18  and  C16_19
REMARK   10  A    between atoms: C15_18  and  C17_20
REMARK   11  A    between atoms: C18_21  and  C19_22
REMARK                            x       y       z     vdW  Elec       q    Type
REMARK                         _______ _______ _______ _____ _____    ______ ____
ROOT
ATOM      1  C1  UNL     1      18.186  -9.530  -5.114  0.00  0.00    +0.000 C 
ATOM      2  C2  UNL     1      17.964  -9.049  -3.713  0.00  0.00    +0.000 C 
ATOM      3  C3  UNL     1      17.706  -7.720  -3.462  0.00  0.00    +0.000 C 
ATOM      4  C4  UNL     1      17.514  -7.321  -2.139  0.00  0.00    +0.000 C 
ATOM      5  C6  UNL     1      17.554  -8.245  -1.069  0.00  0.00    +0.000 C 
ATOM      6  C18 UNL     1      17.845  -9.573  -1.430  0.00  0.00    +0.000 C 
ATOM      7  C19 UNL     1      18.014 -10.706  -0.459  0.00  0.00    +0.000 C 
ATOM      8  N2  UNL     1      18.029  -9.961  -2.722  0.00  0.00    +0.000 NA
ENDROOT
BRANCH   5   9
ATOM      9  C7  UNL     1      17.310  -7.777   0.357  0.00  0.00    +0.000 C 
ATOM     10  C8  UNL     1      15.832  -7.564   0.748  0.00  0.00    +0.000 C 
ATOM     11  C9  UNL     1      15.749  -6.149   1.312  0.00  0.00    +0.000 C 
ATOM     12  C10 UNL     1      17.152  -5.877   1.847  0.00  0.00    +0.000 C 
ATOM     13  C11 UNL     1      17.407  -4.395   2.086  0.00  0.00    +0.000 C 
ATOM     14  C12 UNL     1      18.055  -6.485   0.760  0.00  0.00    +0.000 C 
BRANCH  14  15
ATOM     15  C13 UNL     1      19.463  -6.796   1.257  0.00  0.00    +0.000 C 
ATOM     16  O2  UNL     1      20.395  -6.009   1.107  0.00  0.00    +0.000 OA
BRANCH  15  17
ATOM     17  C14 UNL     1      19.653  -8.105   2.010  0.00  0.00    +0.000 C 
BRANCH  17  18
ATOM     18  C15 UNL     1      20.160  -7.884   3.440  0.00  0.00    +0.000 C 
ATOM     19  C16 UNL     1      21.632  -8.281   3.574  0.00  0.00    +0.000 C 
ATOM     20  C17 UNL     1      19.311  -8.688   4.426  0.00  0.00    +0.000 C 
ENDBRANCH  17  18
ENDBRANCH  15  17
ENDBRANCH  14  15
ENDBRANCH   5   9
BRANCH   4  21
ATOM     21  C5  UNL     1      17.203  -5.888  -1.927  0.00  0.00    +0.000 C 
ATOM     22  N1  UNL     1      17.983  -4.866  -2.122  0.00  0.00    +0.000 NA
BRANCH  22  23
ATOM     23  O1  UNL     1      19.268  -5.246  -2.526  0.00  0.00    +0.000 OA
ATOM     24  H   UNL     1      19.480  -6.155  -2.616  0.00  0.00    +0.000 HD
ENDBRANCH  22  23
ENDBRANCH   4  21
TORSDOF 6
ENDMDL
MODEL 9
REMARK VINA RESULT:    -5.625     26.110     28.784
REMARK INTER + INTRA:          -9.158
REMARK INTER:                  -7.491
REMARK INTRA:                  -1.666
REMARK UNBOUND:                -1.724
REMARK  Name = teste_hibrido_g3\Hibrido_G3_Top9.pdb
REMARK  11 active torsions:
REMARK  status: ('A' for Active; 'I' for Inactive)
REMARK    1  A    between atoms: C1_1  and  C2_2
REMARK    2  A    between atoms: C4_4  and  C5_5
REMARK    3  A    between atoms: N1_6  and  O1_7
REMARK    4  A    between atoms: C6_8  and  C7_9
REMARK    5  A    between atoms: C10_12  and  C11_13
REMARK    6  A    between atoms: C12_14  and  C13_15
REMARK    7  A    between atoms: C13_15  and  C14_17
REMARK    8  A    between atoms: C14_17  and  C15_18
REMARK    9  A    between atoms: C15_18  and  C16_19
REMARK   10  A    between atoms: C15_18  and  C17_20
REMARK   11  A    between atoms: C18_21  and  C19_22
REMARK                            x       y       z     vdW  Elec       q    Type
REMARK                         _______ _______ _______ _____ _____    ______ ____
ROOT
ATOM      1  C1  UNL     1      18.010  -9.682  -5.115  0.00  0.00    +0.000 C 
ATOM      2  C2  UNL     1      17.866  -9.063  -3.759  0.00  0.00    +0.000 C 
ATOM      3  C3  UNL     1      17.661  -7.708  -3.626  0.00  0.00    +0.000 C 
ATOM      4  C4  UNL     1      17.542  -7.179  -2.340  0.00  0.00    +0.000 C 
ATOM      5  C6  UNL     1      17.600  -8.000  -1.189  0.00  0.00    +0.000 C 
ATOM      6  C18 UNL     1      17.832  -9.365  -1.433  0.00  0.00    +0.000 C 
ATOM      7  C19 UNL     1      18.008 -10.407  -0.366  0.00  0.00    +0.000 C 
ATOM      8  N2  UNL     1      17.947  -9.880  -2.689  0.00  0.00    +0.000 NA
ENDROOT
BRANCH   5   9
ATOM      9  C7  UNL     1      17.434  -7.391   0.195  0.00  0.00    +0.000 C 
ATOM     10  C8  UNL     1      18.718  -7.301   1.045  0.00  0.00    +0.000 C 
ATOM     11  C9  UNL     1      18.388  -7.971   2.375  0.00  0.00    +0.000 C 
ATOM     12  C10 UNL     1      16.877  -7.801   2.514  0.00  0.00    +0.000 C 
ATOM     13  C11 UNL     1      16.280  -8.737   3.555  0.00  0.00    +0.000 C 
ATOM     14  C12 UNL     1      16.371  -8.072   1.087  0.00  0.00    +0.000 C 
BRANCH  14  15
ATOM     15  C13 UNL     1      14.984  -7.495   0.825  0.00  0.00    +0.000 C 
ATOM     16  O2  UNL     1      14.801  -6.290   0.657  0.00  0.00    +0.000 OA
BRANCH  15  17
ATOM     17  C14 UNL     1      13.835  -8.487   0.716  0.00  0.00    +0.000 C 
BRANCH  17  18
ATOM     18  C15 UNL     1      14.322  -9.905   0.392  0.00  0.00    +0.000 C 
ATOM     19  C16 UNL     1      14.188 -10.208  -1.102  0.00  0.00    +0.000 C 
ATOM     20  C17 UNL     1      13.529 -10.929   1.205  0.00  0.00    +0.000 C 
ENDBRANCH  17  18
ENDBRANCH  15  17
ENDBRANCH  14  15
ENDBRANCH   5   9
BRANCH   4  21
ATOM     21  C5  UNL     1      17.286  -5.723  -2.253  0.00  0.00    +0.000 C 
ATOM     22  N1  UNL     1      18.137  -4.753  -2.414  0.00  0.00    +0.000 NA
BRANCH  22  23
ATOM     23  O1  UNL     1      19.438  -5.219  -2.636  0.00  0.00    +0.000 OA
ATOM     24  H   UNL     1      19.645  -5.668  -3.432  0.00  0.00    +0.000 HD
ENDBRANCH  22  23
ENDBRANCH   4  21
TORSDOF 6
ENDMDL
