MODEL 1
REMARK VINA RESULT:    -7.724      0.000      0.000
REMARK INTER + INTRA:         -10.004
REMARK INTER:                  -9.305
REMARK INTRA:                  -0.699
REMARK UNBOUND:                -0.699
REMARK  Name = teste_hibrido_g3\Hibrido_G3_Top8.pdb
REMARK  6 active torsions:
REMARK  status: ('A' for Active; 'I' for Inactive)
REMARK    1  A    between atoms: C1_1  and  C2_2
REMARK    2  A    between atoms: C4_4  and  C5_5
REMARK    3  A    between atoms: N1_6  and  O1_7
REMARK    4  A    between atoms: C6_8  and  C7_9
REMARK    5  A    between atoms: C10_12  and  C11_13
REMARK    6  A    between atoms: C12_14  and  C13_15
REMARK                            x       y       z     vdW  Elec       q    Type
REMARK                         _______ _______ _______ _____ _____    ______ ____
ROOT
ATOM      1  C1  UNL     1      -0.204  65.010  71.174  0.00  0.00    +0.000 C 
ATOM      2  C2  UNL     1       0.330  65.584  69.896  0.00  0.00    +0.000 C 
ATOM      3  C3  UNL     1      -0.525  66.191  68.992  0.00  0.00    +0.000 C 
ATOM      4  C4  UNL     1       0.003  66.725  67.811  0.00  0.00    +0.000 C 
ATOM      5  C6  UNL     1       1.382  66.635  67.540  0.00  0.00    +0.000 C 
ATOM      6  C14 UNL     1       2.140  65.995  68.518  0.00  0.00    +0.000 C 
ATOM      7  N3  UNL     1       1.657  65.486  69.674  0.00  0.00    +0.000 NA
ENDROOT
BRANCH   5   8
ATOM      8  C7  UNL     1       2.012  67.198  66.279  0.00  0.00    +0.000 C 
ATOM      9  C8  UNL     1       3.147  66.363  65.653  0.00  0.00    +0.000 C 
ATOM     10  C9  UNL     1       4.432  67.058  66.074  0.00  0.00    +0.000 C 
ATOM     11  C10 UNL     1       4.096  68.546  65.994  0.00  0.00    +0.000 C 
ATOM     12  C11 UNL     1       4.345  69.106  64.592  0.00  0.00    +0.000 C 
ATOM     13  C12 UNL     1       2.600  68.637  66.382  0.00  0.00    +0.000 C 
BRANCH  13  14
ATOM     14  C13 UNL     1       2.387  69.361  67.706  0.00  0.00    +0.000 C 
ATOM     15  N2  UNL     1       1.290  70.156  67.828  0.00  0.00    +0.000 N 
ATOM     16  O2  UNL     1       3.183  69.265  68.636  0.00  0.00    +0.000 OA
ATOM     17  H   UNL     1       0.653  70.233  67.082  0.00  0.00    +0.000 HD
ATOM     18  H   UNL     1       1.134  70.654  68.662  0.00  0.00    +0.000 HD
ENDBRANCH  13  14
ENDBRANCH   5   8
BRANCH   4  19
ATOM     19  C5  UNL     1      -0.943  67.382  66.876  0.00  0.00    +0.000 C 
ATOM     20  N1  UNL     1      -1.066  68.672  66.819  0.00  0.00    +0.000 NA
BRANCH  20  21
ATOM     21  O1  UNL     1      -2.036  68.991  65.861  0.00  0.00    +0.000 OA
ATOM     22  H   UNL     1      -2.544  68.311  65.464  0.00  0.00    +0.000 HD
ENDBRANCH  20  21
ENDBRANCH   4  19
TORSDOF 4
ENDMDL
MODEL 2
REMARK VINA RESULT:    -6.999      2.713      4.032
REMARK INTER + INTRA:          -9.131
REMARK INTER:                  -9.484
REMARK INTRA:                   0.353
REMARK UNBOUND:                -0.699
REMARK  Name = teste_hibrido_g3\Hibrido_G3_Top8.pdb
REMARK  6 active torsions:
REMARK  status: ('A' for Active; 'I' for Inactive)
REMARK    1  A    between atoms: C1_1  and  C2_2
REMARK    2  A    between atoms: C4_4  and  C5_5
REMARK    3  A    between atoms: N1_6  and  O1_7
REMARK    4  A    between atoms: C6_8  and  C7_9
REMARK    5  A    between atoms: C10_12  and  C11_13
REMARK    6  A    between atoms: C12_14  and  C13_15
REMARK                            x       y       z     vdW  Elec       q    Type
REMARK                         _______ _______ _______ _____ _____    ______ ____
ROOT
ATOM      1  C1  UNL     1      -2.814  68.444  65.315  0.00  0.00    +0.000 C 
ATOM      2  C2  UNL     1      -1.356  68.117  65.194  0.00  0.00    +0.000 C 
ATOM      3  C3  UNL     1      -0.660  68.448  64.044  0.00  0.00    +0.000 C 
ATOM      4  C4  UNL     1       0.703  68.138  63.962  0.00  0.00    +0.000 C 
ATOM      5  C6  UNL     1       1.352  67.486  65.028  0.00  0.00    +0.000 C 
ATOM      6  C14 UNL     1       0.547  67.194  66.127  0.00  0.00    +0.000 C 
ATOM      7  N3  UNL     1      -0.766  67.499  66.238  0.00  0.00    +0.000 NA
ENDROOT
BRANCH   5   8
ATOM      8  C7  UNL     1       2.827  67.127  64.998  0.00  0.00    +0.000 C 
ATOM      9  C8  UNL     1       3.160  65.631  64.833  0.00  0.00    +0.000 C 
ATOM     10  C9  UNL     1       3.526  65.148  66.228  0.00  0.00    +0.000 C 
ATOM     11  C10 UNL     1       4.314  66.309  66.831  0.00  0.00    +0.000 C 
ATOM     12  C11 UNL     1       5.804  66.217  66.493  0.00  0.00    +0.000 C 
ATOM     13  C12 UNL     1       3.675  67.581  66.223  0.00  0.00    +0.000 C 
BRANCH  13  14
ATOM     14  C13 UNL     1       2.956  68.425  67.268  0.00  0.00    +0.000 C 
ATOM     15  N2  UNL     1       2.661  67.845  68.462  0.00  0.00    +0.000 N 
ATOM     16  O2  UNL     1       2.620  69.586  67.049  0.00  0.00    +0.000 OA
ATOM     17  H   UNL     1       2.930  66.915  68.637  0.00  0.00    +0.000 HD
ATOM     18  H   UNL     1       2.179  68.356  69.152  0.00  0.00    +0.000 HD
ENDBRANCH  13  14
ENDBRANCH   5   8
BRANCH   4  19
ATOM     19  C5  UNL     1       1.418  68.525  62.722  0.00  0.00    +0.000 C 
ATOM     20  N1  UNL     1       0.815  68.592  61.575  0.00  0.00    +0.000 NA
BRANCH  20  21
ATOM     21  O1  UNL     1       1.744  68.966  60.597  0.00  0.00    +0.000 OA
ATOM     22  H   UNL     1       2.512  69.446  60.840  0.00  0.00    +0.000 HD
ENDBRANCH  20  21
ENDBRANCH   4  19
TORSDOF 4
ENDMDL
MODEL 3
REMARK VINA RESULT:    -6.753      6.978      8.882
REMARK INTER + INTRA:          -8.835
REMARK INTER:                  -8.171
REMARK INTRA:                  -0.663
REMARK UNBOUND:                -0.699
REMARK  Name = teste_hibrido_g3\Hibrido_G3_Top8.pdb
REMARK  6 active torsions:
REMARK  status: ('A' for Active; 'I' for Inactive)
REMARK    1  A    between atoms: C1_1  and  C2_2
REMARK    2  A    between atoms: C4_4  and  C5_5
REMARK    3  A    between atoms: N1_6  and  O1_7
REMARK    4  A    between atoms: C6_8  and  C7_9
REMARK    5  A    between atoms: C10_12  and  C11_13
REMARK    6  A    between atoms: C12_14  and  C13_15
REMARK                            x       y       z     vdW  Elec       q    Type
REMARK                         _______ _______ _______ _____ _____    ______ ____
ROOT
ATOM      1  C1  UNL     1       0.745  55.694  73.550  0.00  0.00    +0.000 C 
ATOM      2  C2  UNL     1       1.021  56.948  72.778  0.00  0.00    +0.000 C 
ATOM      3  C3  UNL     1       0.174  58.039  72.890  0.00  0.00    +0.000 C 
ATOM      4  C4  UNL     1       0.462  59.200  72.162  0.00  0.00    +0.000 C 
ATOM      5  C6  UNL     1       1.588  59.253  71.318  0.00  0.00    +0.000 C 
ATOM      6  C14 UNL     1       2.359  58.093  71.279  0.00  0.00    +0.000 C 
ATOM      7  N3  UNL     1       2.113  56.966  71.984  0.00  0.00    +0.000 NA
ENDROOT
BRANCH   5   8
ATOM      8  C7  UNL     1       1.952  60.484  70.508  0.00  0.00    +0.000 C 
ATOM      9  C8  UNL     1       2.430  60.231  69.063  0.00  0.00    +0.000 C 
ATOM     10  C9  UNL     1       3.944  60.364  69.117  0.00  0.00    +0.000 C 
ATOM     11  C10 UNL     1       4.185  61.520  70.084  0.00  0.00    +0.000 C 
ATOM     12  C11 UNL     1       4.170  62.872  69.365  0.00  0.00    +0.000 C 
ATOM     13  C12 UNL     1       3.037  61.419  71.118  0.00  0.00    +0.000 C 
BRANCH  13  14
ATOM     14  C13 UNL     1       3.540  61.053  72.509  0.00  0.00    +0.000 C 
ATOM     15  N2  UNL     1       2.764  61.384  73.575  0.00  0.00    +0.000 N 
ATOM     16  O2  UNL     1       4.622  60.499  72.686  0.00  0.00    +0.000 OA
ATOM     17  H   UNL     1       1.897  61.828  73.434  0.00  0.00    +0.000 HD
ATOM     18  H   UNL     1       3.069  61.181  74.489  0.00  0.00    +0.000 HD
ENDBRANCH  13  14
ENDBRANCH   5   8
BRANCH   4  19
ATOM     19  C5  UNL     1      -0.459  60.351  72.322  0.00  0.00    +0.000 C 
ATOM     20  N1  UNL     1      -0.295  61.236  73.256  0.00  0.00    +0.000 NA
BRANCH  20  21
ATOM     21  O1  UNL     1      -1.319  62.185  73.164  0.00  0.00    +0.000 OA
ATOM     22  H   UNL     1      -1.886  62.336  73.895  0.00  0.00    +0.000 HD
ENDBRANCH  20  21
ENDBRANCH   4  19
TORSDOF 4
ENDMDL
MODEL 4
REMARK VINA RESULT:    -6.580      2.739      3.745
REMARK INTER + INTRA:          -8.626
REMARK INTER:                  -8.462
REMARK INTRA:                  -0.164
REMARK UNBOUND:                -0.699
REMARK  Name = teste_hibrido_g3\Hibrido_G3_Top8.pdb
REMARK  6 active torsions:
REMARK  status: ('A' for Active; 'I' for Inactive)
REMARK    1  A    between atoms: C1_1  and  C2_2
REMARK    2  A    between atoms: C4_4  and  C5_5
REMARK    3  A    between atoms: N1_6  and  O1_7
REMARK    4  A    between atoms: C6_8  and  C7_9
REMARK    5  A    between atoms: C10_12  and  C11_13
REMARK    6  A    between atoms: C12_14  and  C13_15
REMARK                            x       y       z     vdW  Elec       q    Type
REMARK                         _______ _______ _______ _____ _____    ______ ____
ROOT
ATOM      1  C1  UNL     1       5.054  65.423  69.335  0.00  0.00    +0.000 C 
ATOM      2  C2  UNL     1       4.505  65.815  67.997  0.00  0.00    +0.000 C 
ATOM      3  C3  UNL     1       3.242  66.375  67.896  0.00  0.00    +0.000 C 
ATOM      4  C4  UNL     1       2.759  66.739  66.633  0.00  0.00    +0.000 C 
ATOM      5  C6  UNL     1       3.540  66.525  65.482  0.00  0.00    +0.000 C 
ATOM      6  C14 UNL     1       4.787  65.946  65.706  0.00  0.00    +0.000 C 
ATOM      7  N3  UNL     1       5.283  65.602  66.916  0.00  0.00    +0.000 NA
ENDROOT
BRANCH   5   8
ATOM      8  C7  UNL     1       3.071  66.901  64.088  0.00  0.00    +0.000 C 
ATOM      9  C8  UNL     1       3.305  65.850  62.984  0.00  0.00    +0.000 C 
ATOM     10  C9  UNL     1       4.528  66.338  62.223  0.00  0.00    +0.000 C 
ATOM     11  C10 UNL     1       4.355  67.854  62.168  0.00  0.00    +0.000 C 
ATOM     12  C11 UNL     1       3.525  68.286  60.956  0.00  0.00    +0.000 C 
ATOM     13  C12 UNL     1       3.647  68.221  63.496  0.00  0.00    +0.000 C 
BRANCH  13  14
ATOM     14  C13 UNL     1       4.538  69.044  64.419  0.00  0.00    +0.000 C 
ATOM     15  N2  UNL     1       5.808  69.307  64.011  0.00  0.00    +0.000 N 
ATOM     16  O2  UNL     1       4.149  69.444  65.513  0.00  0.00    +0.000 OA
ATOM     17  H   UNL     1       6.120  68.987  63.134  0.00  0.00    +0.000 HD
ATOM     18  H   UNL     1       6.416  69.818  64.593  0.00  0.00    +0.000 HD
ENDBRANCH  13  14
ENDBRANCH   5   8
BRANCH   4  19
ATOM     19  C5  UNL     1       1.410  67.352  66.570  0.00  0.00    +0.000 C 
ATOM     20  N1  UNL     1       1.140  68.479  67.152  0.00  0.00    +0.000 NA
BRANCH  20  21
ATOM     21  O1  UNL     1      -0.205  68.792  66.928  0.00  0.00    +0.000 OA
ATOM     22  H   UNL     1      -0.525  69.651  67.125  0.00  0.00    +0.000 HD
ENDBRANCH  20  21
ENDBRANCH   4  19
TORSDOF 4
ENDMDL
MODEL 5
REMARK VINA RESULT:    -6.515      6.626     10.136
REMARK INTER + INTRA:          -8.548
REMARK INTER:                  -7.992
REMARK INTRA:                  -0.556
REMARK UNBOUND:                -0.699
REMARK  Name = teste_hibrido_g3\Hibrido_G3_Top8.pdb
REMARK  6 active torsions:
REMARK  status: ('A' for Active; 'I' for Inactive)
REMARK    1  A    between atoms: C1_1  and  C2_2
REMARK    2  A    between atoms: C4_4  and  C5_5
REMARK    3  A    between atoms: N1_6  and  O1_7
REMARK    4  A    between atoms: C6_8  and  C7_9
REMARK    5  A    between atoms: C10_12  and  C11_13
REMARK    6  A    between atoms: C12_14  and  C13_15
REMARK                            x       y       z     vdW  Elec       q    Type
REMARK                         _______ _______ _______ _____ _____    ______ ____
ROOT
ATOM      1  C1  UNL     1       3.511  63.859  69.398  0.00  0.00    +0.000 C 
ATOM      2  C2  UNL     1       2.797  62.715  70.051  0.00  0.00    +0.000 C 
ATOM      3  C3  UNL     1       3.078  61.411  69.677  0.00  0.00    +0.000 C 
ATOM      4  C4  UNL     1       2.401  60.362  70.311  0.00  0.00    +0.000 C 
ATOM      5  C6  UNL     1       1.439  60.629  71.303  0.00  0.00    +0.000 C 
ATOM      6  C14 UNL     1       1.234  61.977  71.587  0.00  0.00    +0.000 C 
ATOM      7  N3  UNL     1       1.886  63.007  71.003  0.00  0.00    +0.000 NA
ENDROOT
BRANCH   5   8
ATOM      8  C7  UNL     1       0.676  59.534  72.026  0.00  0.00    +0.000 C 
ATOM      9  C8  UNL     1      -0.725  59.910  72.548  0.00  0.00    +0.000 C 
ATOM     10  C9  UNL     1      -0.543  60.154  74.038  0.00  0.00    +0.000 C 
ATOM     11  C10 UNL     1       0.455  59.083  74.473  0.00  0.00    +0.000 C 
ATOM     12  C11 UNL     1      -0.248  57.777  74.853  0.00  0.00    +0.000 C 
ATOM     13  C12 UNL     1       1.387  58.888  73.253  0.00  0.00    +0.000 C 
BRANCH  13  14
ATOM     14  C13 UNL     1       2.811  59.354  73.531  0.00  0.00    +0.000 C 
ATOM     15  N2  UNL     1       3.828  58.497  73.246  0.00  0.00    +0.000 N 
ATOM     16  O2  UNL     1       3.053  60.453  74.021  0.00  0.00    +0.000 OA
ATOM     17  H   UNL     1       3.634  57.616  72.853  0.00  0.00    +0.000 HD
ATOM     18  H   UNL     1       4.759  58.758  73.432  0.00  0.00    +0.000 HD
ENDBRANCH  13  14
ENDBRANCH   5   8
BRANCH   4  19
ATOM     19  C5  UNL     1       2.743  58.980  69.895  0.00  0.00    +0.000 C 
ATOM     20  N1  UNL     1       3.808  58.377  70.325  0.00  0.00    +0.000 NA
BRANCH  20  21
ATOM     21  O1  UNL     1       3.868  57.101  69.753  0.00  0.00    +0.000 OA
ATOM     22  H   UNL     1       3.105  56.557  69.741  0.00  0.00    +0.000 HD
ENDBRANCH  20  21
ENDBRANCH   4  19
TORSDOF 4
ENDMDL
MODEL 6
REMARK VINA RESULT:    -6.282      3.007      4.446
REMARK INTER + INTRA:          -8.267
REMARK INTER:                  -9.848
REMARK INTRA:                   1.581
REMARK UNBOUND:                -0.699
REMARK  Name = teste_hibrido_g3\Hibrido_G3_Top8.pdb
REMARK  6 active torsions:
REMARK  status: ('A' for Active; 'I' for Inactive)
REMARK    1  A    between atoms: C1_1  and  C2_2
REMARK    2  A    between atoms: C4_4  and  C5_5
REMARK    3  A    between atoms: N1_6  and  O1_7
REMARK    4  A    between atoms: C6_8  and  C7_9
REMARK    5  A    between atoms: C10_12  and  C11_13
REMARK    6  A    between atoms: C12_14  and  C13_15
REMARK                            x       y       z     vdW  Elec       q    Type
REMARK                         _______ _______ _______ _____ _____    ______ ____
ROOT
ATOM      1  C1  UNL     1       5.073  64.777  69.763  0.00  0.00    +0.000 C 
ATOM      2  C2  UNL     1       4.926  65.597  68.518  0.00  0.00    +0.000 C 
ATOM      3  C3  UNL     1       3.936  66.562  68.429  0.00  0.00    +0.000 C 
ATOM      4  C4  UNL     1       3.827  67.318  67.256  0.00  0.00    +0.000 C 
ATOM      5  C6  UNL     1       4.702  67.092  66.177  0.00  0.00    +0.000 C 
ATOM      6  C14 UNL     1       5.649  66.090  66.378  0.00  0.00    +0.000 C 
ATOM      7  N3  UNL     1       5.786  65.358  67.506  0.00  0.00    +0.000 NA
ENDROOT
BRANCH   5   8
ATOM      8  C7  UNL     1       4.635  67.881  64.882  0.00  0.00    +0.000 C 
ATOM      9  C8  UNL     1       3.631  69.052  64.850  0.00  0.00    +0.000 C 
ATOM     10  C9  UNL     1       2.433  68.528  64.074  0.00  0.00    +0.000 C 
ATOM     11  C10 UNL     1       3.048  67.680  62.963  0.00  0.00    +0.000 C 
ATOM     12  C11 UNL     1       3.380  68.521  61.728  0.00  0.00    +0.000 C 
ATOM     13  C12 UNL     1       4.325  67.069  63.590  0.00  0.00    +0.000 C 
BRANCH  13  14
ATOM     14  C13 UNL     1       4.226  65.557  63.750  0.00  0.00    +0.000 C 
ATOM     15  N2  UNL     1       3.076  65.045  64.267  0.00  0.00    +0.000 N 
ATOM     16  O2  UNL     1       5.152  64.808  63.453  0.00  0.00    +0.000 OA
ATOM     17  H   UNL     1       2.334  65.645  64.506  0.00  0.00    +0.000 HD
ATOM     18  H   UNL     1       2.988  64.074  64.403  0.00  0.00    +0.000 HD
ENDBRANCH  13  14
ENDBRANCH   5   8
BRANCH   4  19
ATOM     19  C5  UNL     1       2.766  68.353  67.207  0.00  0.00    +0.000 C 
ATOM     20  N1  UNL     1       2.583  69.194  68.177  0.00  0.00    +0.000 NA
BRANCH  20  21
ATOM     21  O1  UNL     1       1.510  70.032  67.852  0.00  0.00    +0.000 OA
ATOM     22  H   UNL     1       1.352  70.807  68.355  0.00  0.00    +0.000 HD
ENDBRANCH  20  21
ENDBRANCH   4  19
TORSDOF 4
ENDMDL
MODEL 7
REMARK VINA RESULT:    -6.134     22.467     24.294
REMARK INTER + INTRA:          -8.089
REMARK INTER:                  -7.356
REMARK INTRA:                  -0.733
REMARK UNBOUND:                -0.699
REMARK  Name = teste_hibrido_g3\Hibrido_G3_Top8.pdb
REMARK  6 active torsions:
REMARK  status: ('A' for Active; 'I' for Inactive)
REMARK    1  A    between atoms: C1_1  and  C2_2
REMARK    2  A    between atoms: C4_4  and  C5_5
REMARK    3  A    between atoms: N1_6  and  O1_7
REMARK    4  A    between atoms: C6_8  and  C7_9
REMARK    5  A    between atoms: C10_12  and  C11_13
REMARK    6  A    between atoms: C12_14  and  C13_15
REMARK                            x       y       z     vdW  Elec       q    Type
REMARK                         _______ _______ _______ _____ _____    ______ ____
ROOT
ATOM      1  C1  UNL     1      11.423  49.363  54.033  0.00  0.00    +0.000 C 
ATOM      2  C2  UNL     1      12.305  49.311  55.244  0.00  0.00    +0.000 C 
ATOM      3  C3  UNL     1      13.672  49.133  55.106  0.00  0.00    +0.000 C 
ATOM      4  C4  UNL     1      14.471  49.096  56.255  0.00  0.00    +0.000 C 
ATOM      5  C6  UNL     1      13.892  49.224  57.532  0.00  0.00    +0.000 C 
ATOM      6  C14 UNL     1      12.508  49.388  57.546  0.00  0.00    +0.000 C 
ATOM      7  N3  UNL     1      11.717  49.444  56.451  0.00  0.00    +0.000 NA
ENDROOT
BRANCH   5   8
ATOM      8  C7  UNL     1      14.707  49.195  58.812  0.00  0.00    +0.000 C 
ATOM      9  C8  UNL     1      14.085  48.432  59.999  0.00  0.00    +0.000 C 
ATOM     10  C9  UNL     1      13.515  49.508  60.910  0.00  0.00    +0.000 C 
ATOM     11  C10 UNL     1      14.545  50.634  60.848  0.00  0.00    +0.000 C 
ATOM     12  C11 UNL     1      15.651  50.447  61.890  0.00  0.00    +0.000 C 
ATOM     13  C12 UNL     1      15.111  50.576  59.408  0.00  0.00    +0.000 C 
BRANCH  13  14
ATOM     14  C13 UNL     1      14.733  51.803  58.586  0.00  0.00    +0.000 C 
ATOM     15  N2  UNL     1      15.591  52.207  57.612  0.00  0.00    +0.000 N 
ATOM     16  O2  UNL     1      13.703  52.437  58.799  0.00  0.00    +0.000 OA
ATOM     17  H   UNL     1      16.417  51.699  57.442  0.00  0.00    +0.000 HD
ATOM     18  H   UNL     1      15.387  53.008  57.077  0.00  0.00    +0.000 HD
ENDBRANCH  13  14
ENDBRANCH   5   8
BRANCH   4  19
ATOM     19  C5  UNL     1      15.931  48.922  56.065  0.00  0.00    +0.000 C 
ATOM     20  N1  UNL     1      16.740  49.933  56.001  0.00  0.00    +0.000 NA
BRANCH  20  21
ATOM     21  O1  UNL     1      18.043  49.459  55.805  0.00  0.00    +0.000 OA
ATOM     22  H   UNL     1      18.744  49.780  56.338  0.00  0.00    +0.000 HD
ENDBRANCH  20  21
ENDBRANCH   4  19
TORSDOF 4
ENDMDL
MODEL 8
REMARK VINA RESULT:    -5.715     22.152     23.981
REMARK INTER + INTRA:          -7.584
REMARK INTER:                  -6.908
REMARK INTRA:                  -0.677
REMARK UNBOUND:                -0.699
REMARK  Name = teste_hibrido_g3\Hibrido_G3_Top8.pdb
REMARK  6 active torsions:
REMARK  status: ('A' for Active; 'I' for Inactive)
REMARK    1  A    between atoms: C1_1  and  C2_2
REMARK    2  A    between atoms: C4_4  and  C5_5
REMARK    3  A    between atoms: N1_6  and  O1_7
REMARK    4  A    between atoms: C6_8  and  C7_9
REMARK    5  A    between atoms: C10_12  and  C11_13
REMARK    6  A    between atoms: C12_14  and  C13_15
REMARK                            x       y       z     vdW  Elec       q    Type
REMARK                         _______ _______ _______ _____ _____    ______ ____
ROOT
ATOM      1  C1  UNL     1      15.929  47.450  63.458  0.00  0.00    +0.000 C 
ATOM      2  C2  UNL     1      15.376  48.162  62.261  0.00  0.00    +0.000 C 
ATOM      3  C3  UNL     1      15.490  49.538  62.151  0.00  0.00    +0.000 C 
ATOM      4  C4  UNL     1      14.971  50.174  61.017  0.00  0.00    +0.000 C 
ATOM      5  C6  UNL     1      14.330  49.428  60.010  0.00  0.00    +0.000 C 
ATOM      6  C14 UNL     1      14.266  48.054  60.235  0.00  0.00    +0.000 C 
ATOM      7  N3  UNL     1      14.774  47.414  61.312  0.00  0.00    +0.000 NA
ENDROOT
BRANCH   5   8
ATOM      8  C7  UNL     1      13.750  50.061  58.758  0.00  0.00    +0.000 C 
ATOM      9  C8  UNL     1      12.381  49.523  58.294  0.00  0.00    +0.000 C 
ATOM     10  C9  UNL     1      12.693  48.585  57.139  0.00  0.00    +0.000 C 
ATOM     11  C10 UNL     1      13.826  49.281  56.386  0.00  0.00    +0.000 C 
ATOM     12  C11 UNL     1      13.290  50.263  55.341  0.00  0.00    +0.000 C 
ATOM     13  C12 UNL     1      14.640  50.011  57.481  0.00  0.00    +0.000 C 
BRANCH  13  14
ATOM     14  C13 UNL     1      16.037  49.425  57.653  0.00  0.00    +0.000 C 
ATOM     15  N2  UNL     1      17.002  50.223  58.183  0.00  0.00    +0.000 N 
ATOM     16  O2  UNL     1      16.309  48.279  57.305  0.00  0.00    +0.000 OA
ATOM     17  H   UNL     1      16.783  51.141  58.462  0.00  0.00    +0.000 HD
ATOM     18  H   UNL     1      17.919  49.882  58.288  0.00  0.00    +0.000 HD
ENDBRANCH  13  14
ENDBRANCH   5   8
BRANCH   4  19
ATOM     19  C5  UNL     1      15.129  51.646  60.928  0.00  0.00    +0.000 C 
ATOM     20  N1  UNL     1      16.213  52.194  60.473  0.00  0.00    +0.000 NA
BRANCH  20  21
ATOM     21  O1  UNL     1      16.072  53.585  60.523  0.00  0.00    +0.000 OA
ATOM     22  H   UNL     1      16.822  54.136  60.416  0.00  0.00    +0.000 HD
ENDBRANCH  20  21
ENDBRANCH   4  19
TORSDOF 4
ENDMDL
MODEL 9
REMARK VINA RESULT:    -5.527     21.962     23.583
REMARK INTER + INTRA:          -7.358
REMARK INTER:                  -6.587
REMARK INTRA:                  -0.771
REMARK UNBOUND:                -0.699
REMARK  Name = teste_hibrido_g3\Hibrido_G3_Top8.pdb
REMARK  6 active torsions:
REMARK  status: ('A' for Active; 'I' for Inactive)
REMARK    1  A    between atoms: C1_1  and  C2_2
REMARK    2  A    between atoms: C4_4  and  C5_5
REMARK    3  A    between atoms: N1_6  and  O1_7
REMARK    4  A    between atoms: C6_8  and  C7_9
REMARK    5  A    between atoms: C10_12  and  C11_13
REMARK    6  A    between atoms: C12_14  and  C13_15
REMARK                            x       y       z     vdW  Elec       q    Type
REMARK                         _______ _______ _______ _____ _____    ______ ____
ROOT
ATOM      1  C1  UNL     1      11.780  47.569  55.117  0.00  0.00    +0.000 C 
ATOM      2  C2  UNL     1      12.223  48.407  56.278  0.00  0.00    +0.000 C 
ATOM      3  C3  UNL     1      11.708  48.176  57.543  0.00  0.00    +0.000 C 
ATOM      4  C4  UNL     1      12.146  48.970  58.610  0.00  0.00    +0.000 C 
ATOM      5  C6  UNL     1      13.086  49.996  58.397  0.00  0.00    +0.000 C 
ATOM      6  C14 UNL     1      13.525  50.140  57.083  0.00  0.00    +0.000 C 
ATOM      7  N3  UNL     1      13.130  49.377  56.039  0.00  0.00    +0.000 NA
ENDROOT
BRANCH   5   8
ATOM      8  C7  UNL     1      13.601  50.885  59.515  0.00  0.00    +0.000 C 
ATOM      9  C8  UNL     1      13.819  52.370  59.158  0.00  0.00    +0.000 C 
ATOM     10  C9  UNL     1      15.319  52.513  58.953  0.00  0.00    +0.000 C 
ATOM     11  C10 UNL     1      15.931  51.622  60.032  0.00  0.00    +0.000 C 
ATOM     12  C11 UNL     1      16.117  52.377  61.351  0.00  0.00    +0.000 C 
ATOM     13  C12 UNL     1      14.934  50.448  60.190  0.00  0.00    +0.000 C 
BRANCH  13  14
ATOM     14  C13 UNL     1      15.523  49.121  59.727  0.00  0.00    +0.000 C 
ATOM     15  N2  UNL     1      15.151  47.993  60.390  0.00  0.00    +0.000 N 
ATOM     16  O2  UNL     1      16.330  49.053  58.804  0.00  0.00    +0.000 OA
ATOM     17  H   UNL     1      14.504  48.048  61.129  0.00  0.00    +0.000 HD
ATOM     18  H   UNL     1      15.528  47.122  60.129  0.00  0.00    +0.000 HD
ENDBRANCH  13  14
ENDBRANCH   5   8
BRANCH   4  19
ATOM     19  C5  UNL     1      11.584  48.680  59.951  0.00  0.00    +0.000 C 
ATOM     20  N1  UNL     1      12.131  47.821  60.754  0.00  0.00    +0.000 NA
BRANCH  20  21
ATOM     21  O1  UNL     1      11.374  47.754  61.929  0.00  0.00    +0.000 OA
ATOM     22  H   UNL     1      11.263  48.519  62.459  0.00  0.00    +0.000 HD
ENDBRANCH  20  21
ENDBRANCH   4  19
TORSDOF 4
ENDMDL
