MODEL 1
REMARK VINA RESULT:    -6.522      0.000      0.000
REMARK INTER + INTRA:          -9.782
REMARK INTER:                  -8.428
REMARK INTRA:                  -1.353
REMARK UNBOUND:                -1.353
REMARK  Name = teste_hibrido_g3\Hibrido_G3_Top6.pdb
REMARK  10 active torsions:
REMARK  status: ('A' for Active; 'I' for Inactive)
REMARK    1  A    between atoms: C1_1  and  C2_2
REMARK    2  A    between atoms: C2_2  and  C3_4
REMARK    3  A    between atoms: C5_6  and  C6_7
REMARK    4  A    between atoms: C8_10  and  C9_11
REMARK    5  A    between atoms: C12_14  and  C13_15
REMARK    6  A    between atoms: C14_16  and  C15_17
REMARK    7  A    between atoms: C15_17  and  C16_19
REMARK    8  A    between atoms: C16_19  and  C17_20
REMARK    9  A    between atoms: C17_20  and  C18_21
REMARK   10  A    between atoms: C17_20  and  C19_22
REMARK                            x       y       z     vdW  Elec       q    Type
REMARK                         _______ _______ _______ _____ _____    ______ ____
ROOT
ATOM      1  C9  UNL     1      -6.664 -14.592  21.453  0.00  0.00    +0.000 C 
ATOM      2  C10 UNL     1      -6.827 -15.941  22.183  0.00  0.00    +0.000 C 
ATOM      3  C11 UNL     1      -8.292 -15.966  22.600  0.00  0.00    +0.000 C 
ATOM      4  C12 UNL     1      -8.527 -14.534  23.073  0.00  0.00    +0.000 C 
ATOM      5  C13 UNL     1      -9.992 -14.185  23.282  0.00  0.00    +0.000 C 
ATOM      6  C14 UNL     1      -7.725 -13.656  22.089  0.00  0.00    +0.000 C 
ENDROOT
BRANCH   1  13
ATOM      7  C3  UNL     1      -4.749 -13.273  20.356  0.00  0.00    +0.000 C 
ATOM      8  C4  UNL     1      -3.488 -12.670  20.424  0.00  0.00    +0.000 C 
ATOM      9  C5  UNL     1      -2.777 -12.746  21.609  0.00  0.00    +0.000 C 
ATOM     10  C6  UNL     1      -1.420 -12.121  21.724  0.00  0.00    +0.000 C 
ATOM     11  N1  UNL     1      -3.266 -13.375  22.696  0.00  0.00    +0.000 NA
ATOM     12  C7  UNL     1      -4.486 -13.956  22.600  0.00  0.00    +0.000 C 
ATOM     13  C8  UNL     1      -5.281 -13.967  21.458  0.00  0.00    +0.000 C 
BRANCH   7  15
ATOM     14  C1  UNL     1      -5.971 -11.779  18.679  0.00  0.00    +0.000 C 
ATOM     15  C2  UNL     1      -5.480 -13.147  19.073  0.00  0.00    +0.000 C 
ATOM     16  O1  UNL     1      -5.642 -14.132  18.360  0.00  0.00    +0.000 OA
ENDBRANCH   7  15
ENDBRANCH   1  13
BRANCH   6  17
ATOM     17  C15 UNL     1      -8.539 -12.894  21.039  0.00  0.00    +0.000 C 
ATOM     18  O2  UNL     1      -8.877 -13.482  20.007  0.00  0.00    +0.000 OA
BRANCH  17  19
ATOM     19  C16 UNL     1      -8.958 -11.453  21.308  0.00  0.00    +0.000 C 
BRANCH  19  20
ATOM     20  C17 UNL     1      -9.686 -10.805  20.118  0.00  0.00    +0.000 C 
ATOM     21  C18 UNL     1     -11.089 -10.330  20.507  0.00  0.00    +0.000 C 
ATOM     22  C19 UNL     1      -8.878  -9.618  19.586  0.00  0.00    +0.000 C 
ENDBRANCH  19  20
ENDBRANCH  17  19
ENDBRANCH   6  17
TORSDOF 5
ENDMDL
MODEL 2
REMARK VINA RESULT:    -6.287     12.456     15.400
REMARK INTER + INTRA:          -9.478
REMARK INTER:                  -7.777
REMARK INTRA:                  -1.701
REMARK UNBOUND:                -1.353
REMARK  Name = teste_hibrido_g3\Hibrido_G3_Top6.pdb
REMARK  10 active torsions:
REMARK  status: ('A' for Active; 'I' for Inactive)
REMARK    1  A    between atoms: C1_1  and  C2_2
REMARK    2  A    between atoms: C2_2  and  C3_4
REMARK    3  A    between atoms: C5_6  and  C6_7
REMARK    4  A    between atoms: C8_10  and  C9_11
REMARK    5  A    between atoms: C12_14  and  C13_15
REMARK    6  A    between atoms: C14_16  and  C15_17
REMARK    7  A    between atoms: C15_17  and  C16_19
REMARK    8  A    between atoms: C16_19  and  C17_20
REMARK    9  A    between atoms: C17_20  and  C18_21
REMARK   10  A    between atoms: C17_20  and  C19_22
REMARK                            x       y       z     vdW  Elec       q    Type
REMARK                         _______ _______ _______ _____ _____    ______ ____
ROOT
ATOM      1  C9  UNL     1       0.909  -0.781  18.556  0.00  0.00    +0.000 C 
ATOM      2  C10 UNL     1      -0.306  -0.179  17.820  0.00  0.00    +0.000 C 
ATOM      3  C11 UNL     1      -0.428  -1.016  16.553  0.00  0.00    +0.000 C 
ATOM      4  C12 UNL     1       1.027  -1.179  16.122  0.00  0.00    +0.000 C 
ATOM      5  C13 UNL     1       1.235  -2.221  15.034  0.00  0.00    +0.000 C 
ATOM      6  C14 UNL     1       1.811  -1.366  17.438  0.00  0.00    +0.000 C 
ENDROOT
BRANCH   1  13
ATOM      7  C3  UNL     1       1.910  -0.154  20.839  0.00  0.00    +0.000 C 
ATOM      8  C4  UNL     1       2.671   0.702  21.645  0.00  0.00    +0.000 C 
ATOM      9  C5  UNL     1       3.218   1.838  21.075  0.00  0.00    +0.000 C 
ATOM     10  C6  UNL     1       4.034   2.786  21.901  0.00  0.00    +0.000 C 
ATOM     11  N1  UNL     1       3.047   2.138  19.772  0.00  0.00    +0.000 NA
ATOM     12  C7  UNL     1       2.301   1.296  19.018  0.00  0.00    +0.000 C 
ATOM     13  C8  UNL     1       1.681   0.140  19.483  0.00  0.00    +0.000 C 
BRANCH   7  15
ATOM     14  C1  UNL     1       2.340  -2.411  21.962  0.00  0.00    +0.000 C 
ATOM     15  C2  UNL     1       1.361  -1.368  21.490  0.00  0.00    +0.000 C 
ATOM     16  O1  UNL     1       0.151  -1.483  21.652  0.00  0.00    +0.000 OA
ENDBRANCH   7  15
ENDBRANCH   1  13
BRANCH   6  17
ATOM     17  C15 UNL     1       2.283  -2.789  17.751  0.00  0.00    +0.000 C 
ATOM     18  O2  UNL     1       3.402  -3.143  17.367  0.00  0.00    +0.000 OA
BRANCH  17  19
ATOM     19  C16 UNL     1       1.393  -3.718  18.569  0.00  0.00    +0.000 C 
BRANCH  19  20
ATOM     20  C17 UNL     1       0.677  -4.776  17.712  0.00  0.00    +0.000 C 
ATOM     21  C18 UNL     1       0.870  -6.185  18.280  0.00  0.00    +0.000 C 
ATOM     22  C19 UNL     1      -0.820  -4.462  17.628  0.00  0.00    +0.000 C 
ENDBRANCH  19  20
ENDBRANCH  17  19
ENDBRANCH   6  17
TORSDOF 5
ENDMDL
MODEL 3
REMARK VINA RESULT:    -6.262     28.693     31.430
REMARK INTER + INTRA:          -9.445
REMARK INTER:                  -7.816
REMARK INTRA:                  -1.630
REMARK UNBOUND:                -1.353
REMARK  Name = teste_hibrido_g3\Hibrido_G3_Top6.pdb
REMARK  10 active torsions:
REMARK  status: ('A' for Active; 'I' for Inactive)
REMARK    1  A    between atoms: C1_1  and  C2_2
REMARK    2  A    between atoms: C2_2  and  C3_4
REMARK    3  A    between atoms: C5_6  and  C6_7
REMARK    4  A    between atoms: C8_10  and  C9_11
REMARK    5  A    between atoms: C12_14  and  C13_15
REMARK    6  A    between atoms: C14_16  and  C15_17
REMARK    7  A    between atoms: C15_17  and  C16_19
REMARK    8  A    between atoms: C16_19  and  C17_20
REMARK    9  A    between atoms: C17_20  and  C18_21
REMARK   10  A    between atoms: C17_20  and  C19_22
REMARK                            x       y       z     vdW  Elec       q    Type
REMARK                         _______ _______ _______ _____ _____    ______ ____
ROOT
ATOM      1  C9  UNL     1      16.762  -6.726   1.520  0.00  0.00    +0.000 C 
ATOM      2  C10 UNL     1      16.128  -7.508   0.351  0.00  0.00    +0.000 C 
ATOM      3  C11 UNL     1      14.706  -6.966   0.268  0.00  0.00    +0.000 C 
ATOM      4  C12 UNL     1      14.306  -6.858   1.737  0.00  0.00    +0.000 C 
ATOM      5  C13 UNL     1      13.028  -6.069   1.972  0.00  0.00    +0.000 C 
ATOM      6  C14 UNL     1      15.580  -6.369   2.458  0.00  0.00    +0.000 C 
ENDROOT
BRANCH   1  13
ATOM      7  C3  UNL     1      19.216  -6.919   2.262  0.00  0.00    +0.000 C 
ATOM      8  C4  UNL     1      20.219  -7.548   3.008  0.00  0.00    +0.000 C 
ATOM      9  C5  UNL     1      19.884  -8.648   3.779  0.00  0.00    +0.000 C 
ATOM     10  C6  UNL     1      20.927  -9.357   4.588  0.00  0.00    +0.000 C 
ATOM     11  N1  UNL     1      18.624  -9.123   3.836  0.00  0.00    +0.000 NA
ATOM     12  C7  UNL     1      17.675  -8.499   3.098  0.00  0.00    +0.000 C 
ATOM     13  C8  UNL     1      17.896  -7.403   2.269  0.00  0.00    +0.000 C 
BRANCH   7  15
ATOM     14  C1  UNL     1      20.192  -4.555   2.214  0.00  0.00    +0.000 C 
ATOM     15  C2  UNL     1      19.621  -5.733   1.469  0.00  0.00    +0.000 C 
ATOM     16  O1  UNL     1      19.509  -5.746   0.248  0.00  0.00    +0.000 OA
ENDBRANCH   7  15
ENDBRANCH   1  13
BRANCH   6  17
ATOM     17  C15 UNL     1      15.596  -4.899   2.888  0.00  0.00    +0.000 C 
ATOM     18  O2  UNL     1      14.974  -4.568   3.902  0.00  0.00    +0.000 OA
BRANCH  17  19
ATOM     19  C16 UNL     1      16.414  -3.888   2.092  0.00  0.00    +0.000 C 
BRANCH  19  20
ATOM     20  C17 UNL     1      15.681  -3.369   0.843  0.00  0.00    +0.000 C 
ATOM     21  C18 UNL     1      15.292  -1.895   0.991  0.00  0.00    +0.000 C 
ATOM     22  C19 UNL     1      16.565  -3.539  -0.396  0.00  0.00    +0.000 C 
ENDBRANCH  19  20
ENDBRANCH  17  19
ENDBRANCH   6  17
TORSDOF 5
ENDMDL
MODEL 4
REMARK VINA RESULT:    -6.208     13.252     15.544
REMARK INTER + INTRA:          -9.376
REMARK INTER:                  -7.517
REMARK INTRA:                  -1.859
REMARK UNBOUND:                -1.353
REMARK  Name = teste_hibrido_g3\Hibrido_G3_Top6.pdb
REMARK  10 active torsions:
REMARK  status: ('A' for Active; 'I' for Inactive)
REMARK    1  A    between atoms: C1_1  and  C2_2
REMARK    2  A    between atoms: C2_2  and  C3_4
REMARK    3  A    between atoms: C5_6  and  C6_7
REMARK    4  A    between atoms: C8_10  and  C9_11
REMARK    5  A    between atoms: C12_14  and  C13_15
REMARK    6  A    between atoms: C14_16  and  C15_17
REMARK    7  A    between atoms: C15_17  and  C16_19
REMARK    8  A    between atoms: C16_19  and  C17_20
REMARK    9  A    between atoms: C17_20  and  C18_21
REMARK   10  A    between atoms: C17_20  and  C19_22
REMARK                            x       y       z     vdW  Elec       q    Type
REMARK                         _______ _______ _______ _____ _____    ______ ____
ROOT
ATOM      1  C9  UNL     1       1.313  -1.306  17.443  0.00  0.00    +0.000 C 
ATOM      2  C10 UNL     1       2.105  -1.685  16.174  0.00  0.00    +0.000 C 
ATOM      3  C11 UNL     1       2.464  -3.151  16.382  0.00  0.00    +0.000 C 
ATOM      4  C12 UNL     1       2.853  -3.192  17.858  0.00  0.00    +0.000 C 
ATOM      5  C13 UNL     1       2.984  -4.597  18.422  0.00  0.00    +0.000 C 
ATOM      6  C14 UNL     1       1.857  -2.241  18.554  0.00  0.00    +0.000 C 
ENDROOT
BRANCH   1  13
ATOM      7  C3  UNL     1       0.197   0.845  18.300  0.00  0.00    +0.000 C 
ATOM      8  C4  UNL     1       0.279   2.176  18.727  0.00  0.00    +0.000 C 
ATOM      9  C5  UNL     1       1.517   2.796  18.737  0.00  0.00    +0.000 C 
ATOM     10  C6  UNL     1       1.651   4.222  19.179  0.00  0.00    +0.000 C 
ATOM     11  N1  UNL     1       2.640   2.155  18.355  0.00  0.00    +0.000 NA
ATOM     12  C7  UNL     1       2.530   0.870  17.941  0.00  0.00    +0.000 C 
ATOM     13  C8  UNL     1       1.340   0.152  17.864  0.00  0.00    +0.000 C 
BRANCH   7  15
ATOM     14  C1  UNL     1      -1.718  -0.151  19.671  0.00  0.00    +0.000 C 
ATOM     15  C2  UNL     1      -1.146   0.219  18.327  0.00  0.00    +0.000 C 
ATOM     16  O1  UNL     1      -1.762   0.044  17.282  0.00  0.00    +0.000 OA
ENDBRANCH   7  15
ENDBRANCH   1  13
BRANCH   6  17
ATOM     17  C15 UNL     1       0.736  -2.903  19.363  0.00  0.00    +0.000 C 
ATOM     18  O2  UNL     1      -0.092  -3.601  18.771  0.00  0.00    +0.000 OA
BRANCH  17  19
ATOM     19  C16 UNL     1       0.695  -2.732  20.877  0.00  0.00    +0.000 C 
BRANCH  19  20
ATOM     20  C17 UNL     1       1.788  -1.787  21.407  0.00  0.00    +0.000 C 
ATOM     21  C18 UNL     1       1.193  -0.482  21.942  0.00  0.00    +0.000 C 
ATOM     22  C19 UNL     1       2.586  -2.475  22.518  0.00  0.00    +0.000 C 
ENDBRANCH  19  20
ENDBRANCH  17  19
ENDBRANCH   6  17
TORSDOF 5
ENDMDL
MODEL 5
REMARK VINA RESULT:    -6.158     13.298     16.020
REMARK INTER + INTRA:          -9.311
REMARK INTER:                  -7.577
REMARK INTRA:                  -1.734
REMARK UNBOUND:                -1.353
REMARK  Name = teste_hibrido_g3\Hibrido_G3_Top6.pdb
REMARK  10 active torsions:
REMARK  status: ('A' for Active; 'I' for Inactive)
REMARK    1  A    between atoms: C1_1  and  C2_2
REMARK    2  A    between atoms: C2_2  and  C3_4
REMARK    3  A    between atoms: C5_6  and  C6_7
REMARK    4  A    between atoms: C8_10  and  C9_11
REMARK    5  A    between atoms: C12_14  and  C13_15
REMARK    6  A    between atoms: C14_16  and  C15_17
REMARK    7  A    between atoms: C15_17  and  C16_19
REMARK    8  A    between atoms: C16_19  and  C17_20
REMARK    9  A    between atoms: C17_20  and  C18_21
REMARK   10  A    between atoms: C17_20  and  C19_22
REMARK                            x       y       z     vdW  Elec       q    Type
REMARK                         _______ _______ _______ _____ _____    ______ ____
ROOT
ATOM      1  C9  UNL     1       1.238   0.173  21.145  0.00  0.00    +0.000 C 
ATOM      2  C10 UNL     1       1.755  -0.108  22.572  0.00  0.00    +0.000 C 
ATOM      3  C11 UNL     1       2.620   1.103  22.900  0.00  0.00    +0.000 C 
ATOM      4  C12 UNL     1       3.367   1.342  21.591  0.00  0.00    +0.000 C 
ATOM      5  C13 UNL     1       4.097   2.674  21.532  0.00  0.00    +0.000 C 
ATOM      6  C14 UNL     1       2.328   1.057  20.486  0.00  0.00    +0.000 C 
ENDROOT
BRANCH   1  13
ATOM      7  C3  UNL     1      -0.405  -1.266  19.788  0.00  0.00    +0.000 C 
ATOM      8  C4  UNL     1      -0.670  -2.362  18.960  0.00  0.00    +0.000 C 
ATOM      9  C5  UNL     1       0.374  -3.205  18.618  0.00  0.00    +0.000 C 
ATOM     10  C6  UNL     1       0.135  -4.396  17.740  0.00  0.00    +0.000 C 
ATOM     11  N1  UNL     1       1.633  -2.996  19.052  0.00  0.00    +0.000 NA
ATOM     12  C7  UNL     1       1.859  -1.930  19.858  0.00  0.00    +0.000 C 
ATOM     13  C8  UNL     1       0.888  -1.030  20.288  0.00  0.00    +0.000 C 
BRANCH   7  15
ATOM     14  C1  UNL     1      -1.742   0.850  19.264  0.00  0.00    +0.000 C 
ATOM     15  C2  UNL     1      -1.551  -0.382  20.109  0.00  0.00    +0.000 C 
ATOM     16  O1  UNL     1      -2.318  -0.679  21.018  0.00  0.00    +0.000 OA
ENDBRANCH   7  15
ENDBRANCH   1  13
BRANCH   6  17
ATOM     17  C15 UNL     1       1.739   2.279  19.774  0.00  0.00    +0.000 C 
ATOM     18  O2  UNL     1       1.072   3.086  20.430  0.00  0.00    +0.000 OA
BRANCH  17  19
ATOM     19  C16 UNL     1       2.028   2.503  18.294  0.00  0.00    +0.000 C 
BRANCH  19  20
ATOM     20  C17 UNL     1       1.242   1.551  17.376  0.00  0.00    +0.000 C 
ATOM     21  C18 UNL     1       0.687   2.281  16.150  0.00  0.00    +0.000 C 
ATOM     22  C19 UNL     1       2.141   0.399  16.917  0.00  0.00    +0.000 C 
ENDBRANCH  19  20
ENDBRANCH  17  19
ENDBRANCH   6  17
TORSDOF 5
ENDMDL
MODEL 6
REMARK VINA RESULT:    -6.077     29.508     32.524
REMARK INTER + INTRA:          -9.207
REMARK INTER:                  -7.881
REMARK INTRA:                  -1.326
REMARK UNBOUND:                -1.353
REMARK  Name = teste_hibrido_g3\Hibrido_G3_Top6.pdb
REMARK  10 active torsions:
REMARK  status: ('A' for Active; 'I' for Inactive)
REMARK    1  A    between atoms: C1_1  and  C2_2
REMARK    2  A    between atoms: C2_2  and  C3_4
REMARK    3  A    between atoms: C5_6  and  C6_7
REMARK    4  A    between atoms: C8_10  and  C9_11
REMARK    5  A    between atoms: C12_14  and  C13_15
REMARK    6  A    between atoms: C14_16  and  C15_17
REMARK    7  A    between atoms: C15_17  and  C16_19
REMARK    8  A    between atoms: C16_19  and  C17_20
REMARK    9  A    between atoms: C17_20  and  C18_21
REMARK   10  A    between atoms: C17_20  and  C19_22
REMARK                            x       y       z     vdW  Elec       q    Type
REMARK                         _______ _______ _______ _____ _____    ______ ____
ROOT
ATOM      1  C9  UNL     1      17.183  -7.161   1.935  0.00  0.00    +0.000 C 
ATOM      2  C10 UNL     1      15.826  -6.734   2.532  0.00  0.00    +0.000 C 
ATOM      3  C11 UNL     1      15.360  -7.958   3.312  0.00  0.00    +0.000 C 
ATOM      4  C12 UNL     1      15.729  -9.107   2.378  0.00  0.00    +0.000 C 
ATOM      5  C13 UNL     1      15.641 -10.480   3.024  0.00  0.00    +0.000 C 
ATOM      6  C14 UNL     1      17.087  -8.700   1.768  0.00  0.00    +0.000 C 
ENDROOT
BRANCH   1  13
ATOM      7  C3  UNL     1      18.378  -5.293   0.634  0.00  0.00    +0.000 C 
ATOM      8  C4  UNL     1      18.800  -4.725  -0.573  0.00  0.00    +0.000 C 
ATOM      9  C5  UNL     1      18.476  -5.364  -1.758  0.00  0.00    +0.000 C 
ATOM     10  C6  UNL     1      18.901  -4.787  -3.075  0.00  0.00    +0.000 C 
ATOM     11  N1  UNL     1      17.777  -6.516  -1.780  0.00  0.00    +0.000 NA
ATOM     12  C7  UNL     1      17.376  -7.040  -0.597  0.00  0.00    +0.000 C 
ATOM     13  C8  UNL     1      17.619  -6.477   0.652  0.00  0.00    +0.000 C 
BRANCH   7  15
ATOM     14  C1  UNL     1      20.201  -4.691   2.325  0.00  0.00    +0.000 C 
ATOM     15  C2  UNL     1      18.767  -4.583   1.876  0.00  0.00    +0.000 C 
ATOM     16  O1  UNL     1      17.938  -3.914   2.484  0.00  0.00    +0.000 OA
ENDBRANCH   7  15
ENDBRANCH   1  13
BRANCH   6  17
ATOM     17  C15 UNL     1      18.322  -9.427   2.310  0.00  0.00    +0.000 C 
ATOM     18  O2  UNL     1      18.728 -10.431   1.718  0.00  0.00    +0.000 OA
BRANCH  17  19
ATOM     19  C16 UNL     1      19.050  -8.872   3.529  0.00  0.00    +0.000 C 
BRANCH  19  20
ATOM     20  C17 UNL     1      20.561  -9.156   3.509  0.00  0.00    +0.000 C 
ATOM     21  C18 UNL     1      21.377  -7.877   3.720  0.00  0.00    +0.000 C 
ATOM     22  C19 UNL     1      20.922 -10.173   4.596  0.00  0.00    +0.000 C 
ENDBRANCH  19  20
ENDBRANCH  17  19
ENDBRANCH   6  17
TORSDOF 5
ENDMDL
MODEL 7
REMARK VINA RESULT:    -5.955     29.693     33.042
REMARK INTER + INTRA:          -9.049
REMARK INTER:                  -7.680
REMARK INTRA:                  -1.369
REMARK UNBOUND:                -1.353
REMARK  Name = teste_hibrido_g3\Hibrido_G3_Top6.pdb
REMARK  10 active torsions:
REMARK  status: ('A' for Active; 'I' for Inactive)
REMARK    1  A    between atoms: C1_1  and  C2_2
REMARK    2  A    between atoms: C2_2  and  C3_4
REMARK    3  A    between atoms: C5_6  and  C6_7
REMARK    4  A    between atoms: C8_10  and  C9_11
REMARK    5  A    between atoms: C12_14  and  C13_15
REMARK    6  A    between atoms: C14_16  and  C15_17
REMARK    7  A    between atoms: C15_17  and  C16_19
REMARK    8  A    between atoms: C16_19  and  C17_20
REMARK    9  A    between atoms: C17_20  and  C18_21
REMARK   10  A    between atoms: C17_20  and  C19_22
REMARK                            x       y       z     vdW  Elec       q    Type
REMARK                         _______ _______ _______ _____ _____    ______ ____
ROOT
ATOM      1  C9  UNL     1      18.062  -6.612   1.271  0.00  0.00    +0.000 C 
ATOM      2  C10 UNL     1      18.059  -5.088   1.516  0.00  0.00    +0.000 C 
ATOM      3  C11 UNL     1      17.666  -4.495   0.169  0.00  0.00    +0.000 C 
ATOM      4  C12 UNL     1      18.458  -5.352  -0.815  0.00  0.00    +0.000 C 
ATOM      5  C13 UNL     1      18.039  -5.172  -2.265  0.00  0.00    +0.000 C 
ATOM      6  C14 UNL     1      18.395  -6.780  -0.234  0.00  0.00    +0.000 C 
ENDROOT
BRANCH   1  13
ATOM      7  C3  UNL     1      18.579  -8.684   2.702  0.00  0.00    +0.000 C 
ATOM      8  C4  UNL     1      19.469  -9.448   3.467  0.00  0.00    +0.000 C 
ATOM      9  C5  UNL     1      20.758  -8.978   3.653  0.00  0.00    +0.000 C 
ATOM     10  C6  UNL     1      21.742  -9.759   4.471  0.00  0.00    +0.000 C 
ATOM     11  N1  UNL     1      21.179  -7.816   3.116  0.00  0.00    +0.000 NA
ATOM     12  C7  UNL     1      20.295  -7.094   2.386  0.00  0.00    +0.000 C 
ATOM     13  C8  UNL     1      18.970  -7.451   2.151  0.00  0.00    +0.000 C 
BRANCH   7  15
ATOM     14  C1  UNL     1      16.121  -8.721   3.409  0.00  0.00    +0.000 C 
ATOM     15  C2  UNL     1      17.217  -9.239   2.514  0.00  0.00    +0.000 C 
ATOM     16  O1  UNL     1      17.010 -10.069   1.636  0.00  0.00    +0.000 OA
ENDBRANCH   7  15
ENDBRANCH   1  13
BRANCH   6  17
ATOM     17  C15 UNL     1      17.451  -7.760  -0.937  0.00  0.00    +0.000 C 
ATOM     18  O2  UNL     1      16.247  -7.723  -0.668  0.00  0.00    +0.000 OA
BRANCH  17  19
ATOM     19  C16 UNL     1      18.003  -8.719  -1.985  0.00  0.00    +0.000 C 
BRANCH  19  20
ATOM     20  C17 UNL     1      17.158  -8.759  -3.271  0.00  0.00    +0.000 C 
ATOM     21  C18 UNL     1      18.016  -8.517  -4.516  0.00  0.00    +0.000 C 
ATOM     22  C19 UNL     1      16.452 -10.112  -3.397  0.00  0.00    +0.000 C 
ENDBRANCH  19  20
ENDBRANCH  17  19
ENDBRANCH   6  17
TORSDOF 5
ENDMDL
MODEL 8
REMARK VINA RESULT:    -5.952     30.048     32.254
REMARK INTER + INTRA:          -9.045
REMARK INTER:                  -7.683
REMARK INTRA:                  -1.362
REMARK UNBOUND:                -1.353
REMARK  Name = teste_hibrido_g3\Hibrido_G3_Top6.pdb
REMARK  10 active torsions:
REMARK  status: ('A' for Active; 'I' for Inactive)
REMARK    1  A    between atoms: C1_1  and  C2_2
REMARK    2  A    between atoms: C2_2  and  C3_4
REMARK    3  A    between atoms: C5_6  and  C6_7
REMARK    4  A    between atoms: C8_10  and  C9_11
REMARK    5  A    between atoms: C12_14  and  C13_15
REMARK    6  A    between atoms: C14_16  and  C15_17
REMARK    7  A    between atoms: C15_17  and  C16_19
REMARK    8  A    between atoms: C16_19  and  C17_20
REMARK    9  A    between atoms: C17_20  and  C18_21
REMARK   10  A    between atoms: C17_20  and  C19_22
REMARK                            x       y       z     vdW  Elec       q    Type
REMARK                         _______ _______ _______ _____ _____    ______ ____
ROOT
ATOM      1  C9  UNL     1      17.505  -7.569   2.028  0.00  0.00    +0.000 C 
ATOM      2  C10 UNL     1      16.258  -7.492   2.933  0.00  0.00    +0.000 C 
ATOM      3  C11 UNL     1      15.493  -6.281   2.412  0.00  0.00    +0.000 C 
ATOM      4  C12 UNL     1      16.608  -5.271   2.151  0.00  0.00    +0.000 C 
ATOM      5  C13 UNL     1      16.165  -4.058   1.350  0.00  0.00    +0.000 C 
ATOM      6  C14 UNL     1      17.772  -6.108   1.581  0.00  0.00    +0.000 C 
ENDROOT
BRANCH   1  13
ATOM      7  C3  UNL     1      18.860  -9.604   2.820  0.00  0.00    +0.000 C 
ATOM      8  C4  UNL     1      20.043 -10.165   3.317  0.00  0.00    +0.000 C 
ATOM      9  C5  UNL     1      21.113  -9.329   3.584  0.00  0.00    +0.000 C 
ATOM     10  C6  UNL     1      22.396  -9.884   4.125  0.00  0.00    +0.000 C 
ATOM     11  N1  UNL     1      21.052  -7.999   3.372  0.00  0.00    +0.000 NA
ATOM     12  C7  UNL     1      19.894  -7.484   2.896  0.00  0.00    +0.000 C 
ATOM     13  C8  UNL     1      18.745  -8.218   2.615  0.00  0.00    +0.000 C 
BRANCH   7  15
ATOM     14  C1  UNL     1      17.669 -11.127   1.145  0.00  0.00    +0.000 C 
ATOM     15  C2  UNL     1      17.749 -10.542   2.531  0.00  0.00    +0.000 C 
ATOM     16  O1  UNL     1      16.952 -10.838   3.414  0.00  0.00    +0.000 OA
ENDBRANCH   7  15
ENDBRANCH   1  13
BRANCH   6  17
ATOM     17  C15 UNL     1      18.018  -5.992   0.073  0.00  0.00    +0.000 C 
ATOM     18  O2  UNL     1      19.053  -5.445  -0.321  0.00  0.00    +0.000 OA
BRANCH  17  19
ATOM     19  C16 UNL     1      17.015  -6.594  -0.904  0.00  0.00    +0.000 C 
BRANCH  19  20
ATOM     20  C17 UNL     1      17.536  -7.866  -1.595  0.00  0.00    +0.000 C 
ATOM     21  C18 UNL     1      16.488  -8.982  -1.584  0.00  0.00    +0.000 C 
ATOM     22  C19 UNL     1      17.932  -7.556  -3.042  0.00  0.00    +0.000 C 
ENDBRANCH  19  20
ENDBRANCH  17  19
ENDBRANCH   6  17
TORSDOF 5
ENDMDL
MODEL 9
REMARK VINA RESULT:    -5.929     29.207     32.073
REMARK INTER + INTRA:          -9.015
REMARK INTER:                  -7.283
REMARK INTRA:                  -1.732
REMARK UNBOUND:                -1.353
REMARK  Name = teste_hibrido_g3\Hibrido_G3_Top6.pdb
REMARK  10 active torsions:
REMARK  status: ('A' for Active; 'I' for Inactive)
REMARK    1  A    between atoms: C1_1  and  C2_2
REMARK    2  A    between atoms: C2_2  and  C3_4
REMARK    3  A    between atoms: C5_6  and  C6_7
REMARK    4  A    between atoms: C8_10  and  C9_11
REMARK    5  A    between atoms: C12_14  and  C13_15
REMARK    6  A    between atoms: C14_16  and  C15_17
REMARK    7  A    between atoms: C15_17  and  C16_19
REMARK    8  A    between atoms: C16_19  and  C17_20
REMARK    9  A    between atoms: C17_20  and  C18_21
REMARK   10  A    between atoms: C17_20  and  C19_22
REMARK                            x       y       z     vdW  Elec       q    Type
REMARK                         _______ _______ _______ _____ _____    ______ ____
ROOT
ATOM      1  C9  UNL     1      18.921  -7.183   1.404  0.00  0.00    +0.000 C 
ATOM      2  C10 UNL     1      20.349  -6.638   1.613  0.00  0.00    +0.000 C 
ATOM      3  C11 UNL     1      20.974  -7.602   2.615  0.00  0.00    +0.000 C 
ATOM      4  C12 UNL     1      19.835  -7.838   3.603  0.00  0.00    +0.000 C 
ATOM      5  C13 UNL     1      20.079  -8.992   4.561  0.00  0.00    +0.000 C 
ATOM      6  C14 UNL     1      18.563  -7.901   2.731  0.00  0.00    +0.000 C 
ENDROOT
BRANCH   1  13
ATOM      7  C3  UNL     1      17.201  -6.230  -0.252  0.00  0.00    +0.000 C 
ATOM      8  C4  UNL     1      16.187  -5.319  -0.568  0.00  0.00    +0.000 C 
ATOM      9  C5  UNL     1      15.818  -4.380   0.380  0.00  0.00    +0.000 C 
ATOM     10  C6  UNL     1      14.742  -3.379   0.081  0.00  0.00    +0.000 C 
ATOM     11  N1  UNL     1      16.399  -4.324   1.594  0.00  0.00    +0.000 NA
ATOM     12  C7  UNL     1      17.382  -5.214   1.871  0.00  0.00    +0.000 C 
ATOM     13  C8  UNL     1      17.854  -6.185   0.993  0.00  0.00    +0.000 C 
BRANCH   7  15
ATOM     14  C1  UNL     1      16.754  -8.510  -1.322  0.00  0.00    +0.000 C 
ATOM     15  C2  UNL     1      17.546  -7.229  -1.291  0.00  0.00    +0.000 C 
ATOM     16  O1  UNL     1      18.432  -6.986  -2.104  0.00  0.00    +0.000 OA
ENDBRANCH   7  15
ENDBRANCH   1  13
BRANCH   6  17
ATOM     17  C15 UNL     1      17.964  -9.292   2.502  0.00  0.00    +0.000 C 
ATOM     18  O2  UNL     1      18.645 -10.146   1.928  0.00  0.00    +0.000 OA
BRANCH  17  19
ATOM     19  C16 UNL     1      16.568  -9.609   3.028  0.00  0.00    +0.000 C 
BRANCH  19  20
ATOM     20  C17 UNL     1      15.454  -9.273   2.021  0.00  0.00    +0.000 C 
ATOM     21  C18 UNL     1      14.380 -10.363   1.986  0.00  0.00    +0.000 C 
ATOM     22  C19 UNL     1      14.805  -7.932   2.380  0.00  0.00    +0.000 C 
ENDBRANCH  19  20
ENDBRANCH  17  19
ENDBRANCH   6  17
TORSDOF 5
ENDMDL
