REMARK  Name = teste_hibrido_g3\Hibrido_G3_Top8.pdb
REMARK  6 active torsions:
REMARK  status: ('A' for Active; 'I' for Inactive)
REMARK    1  A    between atoms: C1_1  and  C2_2
REMARK    2  A    between atoms: C4_4  and  C5_5
REMARK    3  A    between atoms: N1_6  and  O1_7
REMARK    4  A    between atoms: C6_8  and  C7_9
REMARK    5  A    between atoms: C10_12  and  C11_13
REMARK    6  A    between atoms: C12_14  and  C13_15
REMARK                            x       y       z     vdW  Elec       q    Type
REMARK                         _______ _______ _______ _____ _____    ______ ____
ROOT
ATOM      1  C1  UNL     1       4.716  -1.090   0.785  0.00  0.00    +0.000 C 
ATOM      2  C2  UNL     1       3.270  -0.698   0.743  0.00  0.00    +0.000 C 
ATOM      3  C3  UNL     1       2.908   0.607   0.452  0.00  0.00    +0.000 C 
ATOM      4  C4  UNL     1       1.549   0.942   0.412  0.00  0.00    +0.000 C 
ATOM      5  C6  UNL     1       0.566  -0.030   0.677  0.00  0.00    +0.000 C 
ATOM      6  C14 UNL     1       1.050  -1.304   0.967  0.00  0.00    +0.000 C 
ATOM      7  N3  UNL     1       2.355  -1.657   0.995  0.00  0.00    +0.000 NA
ENDROOT
BRANCH   5   8
ATOM      8  C7  UNL     1      -0.921   0.273   0.645  0.00  0.00    +0.000 C 
ATOM      9  C8  UNL     1      -1.820  -0.635   1.509  0.00  0.00    +0.000 C 
ATOM     10  C9  UNL     1      -2.450  -1.616   0.533  0.00  0.00    +0.000 C 
ATOM     11  C10 UNL     1      -2.741  -0.775  -0.708  0.00  0.00    +0.000 C 
ATOM     12  C11 UNL     1      -4.112  -0.099  -0.624  0.00  0.00    +0.000 C 
ATOM     13  C12 UNL     1      -1.599   0.269  -0.757  0.00  0.00    +0.000 C 
BRANCH  13  14
ATOM     14  C13 UNL     1      -0.677   0.064  -1.953  0.00  0.00    +0.000 C 
ATOM     15  N2  UNL     1      -0.209  -1.191  -2.189  0.00  0.00    +0.000 N 
ATOM     16  O2  UNL     1      -0.334   0.994  -2.678  0.00  0.00    +0.000 OA
ATOM     17  H   UNL     1      -0.484  -1.936  -1.608  0.00  0.00    +0.000 HD
ATOM     18  H   UNL     1       0.405  -1.354  -2.941  0.00  0.00    +0.000 HD
ENDBRANCH  13  14
ENDBRANCH   5   8
BRANCH   4  19
ATOM     19  C5  UNL     1       1.202   2.345   0.080  0.00  0.00    +0.000 C 
ATOM     20  N1  UNL     1       2.087   3.293   0.096  0.00  0.00    +0.000 NA
BRANCH  20  21
ATOM     21  O1  UNL     1       1.464   4.499  -0.245  0.00  0.00    +0.000 OA
ATOM     22  H   UNL     1       1.964   5.291  -0.281  0.00  0.00    +0.000 HD
ENDBRANCH  20  21
ENDBRANCH   4  19
TORSDOF 4
