MODEL 1
REMARK VINA RESULT:    -6.329      0.000      0.000
REMARK INTER + INTRA:         -10.213
REMARK INTER:                  -8.733
REMARK INTRA:                  -1.480
REMARK UNBOUND:                -1.480
REMARK  Name = teste_hibrido_g3\Hibrido_G3_Top7.pdb
REMARK  11 active torsions:
REMARK  status: ('A' for Active; 'I' for Inactive)
REMARK    1  A    between atoms: C1_1  and  C2_2
REMARK    2  A    between atoms: C2_2  and  C3_3
REMARK    3  A    between atoms: C5_5  and  C6_6
REMARK    4  A    between atoms: N1_7  and  O1_8
REMARK    5  A    between atoms: C7_9  and  C8_10
REMARK    6  A    between atoms: C11_13  and  C12_14
REMARK    7  A    between atoms: C13_15  and  C14_16
REMARK    8  A    between atoms: C14_16  and  C15_18
REMARK    9  A    between atoms: C15_18  and  C16_19
REMARK   10  A    between atoms: C16_19  and  C17_20
REMARK   11  A    between atoms: C16_19  and  C18_21
REMARK                            x       y       z     vdW  Elec       q    Type
REMARK                         _______ _______ _______ _____ _____    ______ ____
ROOT
ATOM      1  C3  UNL     1      20.465  -8.451   3.387  0.00  0.00    +0.000 C 
ATOM      2  C4  UNL     1      19.284  -9.118   3.098  0.00  0.00    +0.000 C 
ATOM      3  C5  UNL     1      18.272  -8.435   2.416  0.00  0.00    +0.000 C 
ATOM      4  C7  UNL     1      18.454  -7.106   2.012  0.00  0.00    +0.000 C 
ATOM      5  C19 UNL     1      19.674  -6.531   2.368  0.00  0.00    +0.000 C 
ATOM      6  N2  UNL     1      20.668  -7.164   3.031  0.00  0.00    +0.000 NA
ENDROOT
BRANCH   4   7
ATOM      7  C8  UNL     1      17.409  -6.301   1.268  0.00  0.00    +0.000 C 
ATOM      8  C9  UNL     1      16.361  -5.657   2.205  0.00  0.00    +0.000 C 
ATOM      9  C10 UNL     1      16.389  -4.159   1.907  0.00  0.00    +0.000 C 
ATOM     10  C11 UNL     1      16.905  -4.050   0.472  0.00  0.00    +0.000 C 
ATOM     11  C12 UNL     1      15.780  -4.276  -0.542  0.00  0.00    +0.000 C 
ATOM     12  C13 UNL     1      18.004  -5.123   0.457  0.00  0.00    +0.000 C 
BRANCH  12  13
ATOM     13  C14 UNL     1      18.473  -5.503  -0.944  0.00  0.00    +0.000 C 
ATOM     14  O2  UNL     1      18.885  -4.660  -1.740  0.00  0.00    +0.000 OA
BRANCH  13  15
ATOM     15  C15 UNL     1      18.434  -6.989  -1.285  0.00  0.00    +0.000 C 
BRANCH  15  16
ATOM     16  C16 UNL     1      17.305  -7.364  -2.256  0.00  0.00    +0.000 C 
ATOM     17  C17 UNL     1      17.894  -7.917  -3.555  0.00  0.00    +0.000 C 
ATOM     18  C18 UNL     1      16.358  -8.395  -1.638  0.00  0.00    +0.000 C 
ENDBRANCH  15  16
ENDBRANCH  13  15
ENDBRANCH  12  13
ENDBRANCH   4   7
BRANCH   1  20
ATOM     19  C1  UNL     1      22.894  -9.052   3.405  0.00  0.00    +0.000 C 
ATOM     20  C2  UNL     1      21.568  -9.138   4.146  0.00  0.00    +0.000 C 
ENDBRANCH   1  20
BRANCH   3  21
ATOM     21  C6  UNL     1      17.038  -9.180   2.090  0.00  0.00    +0.000 C 
ATOM     22  N1  UNL     1      16.006  -9.386   2.855  0.00  0.00    +0.000 NA
BRANCH  22  23
ATOM     23  O1  UNL     1      16.117  -8.739   4.089  0.00  0.00    +0.000 OA
ATOM     24  H   UNL     1      16.686  -9.083   4.749  0.00  0.00    +0.000 HD
ENDBRANCH  22  23
ENDBRANCH   3  21
TORSDOF 7
ENDMDL
MODEL 2
REMARK VINA RESULT:    -6.201     24.553     27.103
REMARK INTER + INTRA:         -10.037
REMARK INTER:                  -8.470
REMARK INTRA:                  -1.567
REMARK UNBOUND:                -1.480
REMARK  Name = teste_hibrido_g3\Hibrido_G3_Top7.pdb
REMARK  11 active torsions:
REMARK  status: ('A' for Active; 'I' for Inactive)
REMARK    1  A    between atoms: C1_1  and  C2_2
REMARK    2  A    between atoms: C2_2  and  C3_3
REMARK    3  A    between atoms: C5_5  and  C6_6
REMARK    4  A    between atoms: N1_7  and  O1_8
REMARK    5  A    between atoms: C7_9  and  C8_10
REMARK    6  A    between atoms: C11_13  and  C12_14
REMARK    7  A    between atoms: C13_15  and  C14_16
REMARK    8  A    between atoms: C14_16  and  C15_18
REMARK    9  A    between atoms: C15_18  and  C16_19
REMARK   10  A    between atoms: C16_19  and  C17_20
REMARK   11  A    between atoms: C16_19  and  C18_21
REMARK                            x       y       z     vdW  Elec       q    Type
REMARK                         _______ _______ _______ _____ _____    ______ ____
ROOT
ATOM      1  C3  UNL     1       3.005   1.961  21.784  0.00  0.00    +0.000 C 
ATOM      2  C4  UNL     1       2.425   2.340  20.584  0.00  0.00    +0.000 C 
ATOM      3  C5  UNL     1       1.758   1.376  19.821  0.00  0.00    +0.000 C 
ATOM      4  C7  UNL     1       1.659   0.053  20.271  0.00  0.00    +0.000 C 
ATOM      5  C19 UNL     1       2.291  -0.218  21.485  0.00  0.00    +0.000 C 
ATOM      6  N2  UNL     1       2.946   0.691  22.240  0.00  0.00    +0.000 NA
ENDROOT
BRANCH   4   7
ATOM      7  C8  UNL     1       0.952  -1.046  19.505  0.00  0.00    +0.000 C 
ATOM      8  C9  UNL     1       1.852  -1.719  18.444  0.00  0.00    +0.000 C 
ATOM      9  C10 UNL     1       1.846  -3.212  18.767  0.00  0.00    +0.000 C 
ATOM     10  C11 UNL     1       0.534  -3.450  19.515  0.00  0.00    +0.000 C 
ATOM     11  C12 UNL     1      -0.639  -3.611  18.544  0.00  0.00    +0.000 C 
ATOM     12  C13 UNL     1       0.459  -2.204  20.409  0.00  0.00    +0.000 C 
BRANCH  12  13
ATOM     13  C14 UNL     1      -0.917  -1.972  21.025  0.00  0.00    +0.000 C 
ATOM     14  O2  UNL     1      -1.434  -2.793  21.783  0.00  0.00    +0.000 OA
BRANCH  13  15
ATOM     15  C15 UNL     1      -1.596  -0.652  20.677  0.00  0.00    +0.000 C 
BRANCH  15  16
ATOM     16  C16 UNL     1      -2.769  -0.807  19.698  0.00  0.00    +0.000 C 
ATOM     17  C17 UNL     1      -4.046  -0.233  20.315  0.00  0.00    +0.000 C 
ATOM     18  C18 UNL     1      -2.480  -0.111  18.366  0.00  0.00    +0.000 C 
ENDBRANCH  15  16
ENDBRANCH  13  15
ENDBRANCH  12  13
ENDBRANCH   4   7
BRANCH   1  20
ATOM     19  C1  UNL     1       3.203   3.034  24.037  0.00  0.00    +0.000 C 
ATOM     20  C2  UNL     1       3.758   2.959  22.622  0.00  0.00    +0.000 C 
ENDBRANCH   1  20
BRANCH   3  21
ATOM     21  C6  UNL     1       1.119   1.815  18.563  0.00  0.00    +0.000 C 
ATOM     22  N1  UNL     1       1.666   1.920  17.386  0.00  0.00    +0.000 NA
BRANCH  22  23
ATOM     23  O1  UNL     1       2.994   1.484  17.372  0.00  0.00    +0.000 OA
ATOM     24  H   UNL     1       3.692   2.109  17.349  0.00  0.00    +0.000 HD
ENDBRANCH  22  23
ENDBRANCH   3  21
TORSDOF 7
ENDMDL
MODEL 3
REMARK VINA RESULT:    -6.084      2.181      4.658
REMARK INTER + INTRA:          -9.876
REMARK INTER:                  -8.629
REMARK INTRA:                  -1.248
REMARK UNBOUND:                -1.480
REMARK  Name = teste_hibrido_g3\Hibrido_G3_Top7.pdb
REMARK  11 active torsions:
REMARK  status: ('A' for Active; 'I' for Inactive)
REMARK    1  A    between atoms: C1_1  and  C2_2
REMARK    2  A    between atoms: C2_2  and  C3_3
REMARK    3  A    between atoms: C5_5  and  C6_6
REMARK    4  A    between atoms: N1_7  and  O1_8
REMARK    5  A    between atoms: C7_9  and  C8_10
REMARK    6  A    between atoms: C11_13  and  C12_14
REMARK    7  A    between atoms: C13_15  and  C14_16
REMARK    8  A    between atoms: C14_16  and  C15_18
REMARK    9  A    between atoms: C15_18  and  C16_19
REMARK   10  A    between atoms: C16_19  and  C17_20
REMARK   11  A    between atoms: C16_19  and  C18_21
REMARK                            x       y       z     vdW  Elec       q    Type
REMARK                         _______ _______ _______ _____ _____    ______ ____
ROOT
ATOM      1  C3  UNL     1      20.260  -7.895   3.152  0.00  0.00    +0.000 C 
ATOM      2  C4  UNL     1      20.221  -6.777   2.333  0.00  0.00    +0.000 C 
ATOM      3  C5  UNL     1      19.002  -6.397   1.765  0.00  0.00    +0.000 C 
ATOM      4  C7  UNL     1      17.833  -7.121   2.033  0.00  0.00    +0.000 C 
ATOM      5  C19 UNL     1      17.991  -8.235   2.857  0.00  0.00    +0.000 C 
ATOM      6  N2  UNL     1      19.157  -8.629   3.417  0.00  0.00    +0.000 NA
ENDROOT
BRANCH   4   7
ATOM      7  C8  UNL     1      16.475  -6.771   1.459  0.00  0.00    +0.000 C 
ATOM      8  C9  UNL     1      15.946  -7.833   0.468  0.00  0.00    +0.000 C 
ATOM      9  C10 UNL     1      14.581  -8.265   0.998  0.00  0.00    +0.000 C 
ATOM     10  C11 UNL     1      14.082  -7.079   1.824  0.00  0.00    +0.000 C 
ATOM     11  C12 UNL     1      13.446  -6.009   0.933  0.00  0.00    +0.000 C 
ATOM     12  C13 UNL     1      15.369  -6.638   2.536  0.00  0.00    +0.000 C 
BRANCH  12  13
ATOM     13  C14 UNL     1      15.278  -5.253   3.168  0.00  0.00    +0.000 C 
ATOM     14  O2  UNL     1      14.605  -5.045   4.178  0.00  0.00    +0.000 OA
BRANCH  13  15
ATOM     15  C15 UNL     1      16.094  -4.153   2.499  0.00  0.00    +0.000 C 
BRANCH  15  16
ATOM     16  C16 UNL     1      15.631  -2.736   2.867  0.00  0.00    +0.000 C 
ATOM     17  C17 UNL     1      16.796  -1.942   3.462  0.00  0.00    +0.000 C 
ATOM     18  C18 UNL     1      15.070  -1.998   1.648  0.00  0.00    +0.000 C 
ENDBRANCH  15  16
ENDBRANCH  13  15
ENDBRANCH  12  13
ENDBRANCH   4   7
BRANCH   1  20
ATOM     19  C1  UNL     1      21.411  -9.721   4.418  0.00  0.00    +0.000 C 
ATOM     20  C2  UNL     1      21.557  -8.357   3.760  0.00  0.00    +0.000 C 
ENDBRANCH   1  20
BRANCH   3  21
ATOM     21  C6  UNL     1      18.983  -5.181   0.926  0.00  0.00    +0.000 C 
ATOM     22  N1  UNL     1      19.065  -5.106  -0.372  0.00  0.00    +0.000 NA
BRANCH  22  23
ATOM     23  O1  UNL     1      19.103  -6.365  -0.979  0.00  0.00    +0.000 OA
ATOM     24  H   UNL     1      18.433  -6.613  -1.586  0.00  0.00    +0.000 HD
ENDBRANCH  22  23
ENDBRANCH   3  21
TORSDOF 7
ENDMDL
MODEL 4
REMARK VINA RESULT:    -6.018     22.759     25.069
REMARK INTER + INTRA:          -9.785
REMARK INTER:                  -8.406
REMARK INTRA:                  -1.379
REMARK UNBOUND:                -1.480
REMARK  Name = teste_hibrido_g3\Hibrido_G3_Top7.pdb
REMARK  11 active torsions:
REMARK  status: ('A' for Active; 'I' for Inactive)
REMARK    1  A    between atoms: C1_1  and  C2_2
REMARK    2  A    between atoms: C2_2  and  C3_3
REMARK    3  A    between atoms: C5_5  and  C6_6
REMARK    4  A    between atoms: N1_7  and  O1_8
REMARK    5  A    between atoms: C7_9  and  C8_10
REMARK    6  A    between atoms: C11_13  and  C12_14
REMARK    7  A    between atoms: C13_15  and  C14_16
REMARK    8  A    between atoms: C14_16  and  C15_18
REMARK    9  A    between atoms: C15_18  and  C16_19
REMARK   10  A    between atoms: C16_19  and  C17_20
REMARK   11  A    between atoms: C16_19  and  C18_21
REMARK                            x       y       z     vdW  Elec       q    Type
REMARK                         _______ _______ _______ _____ _____    ______ ____
ROOT
ATOM      1  C3  UNL     1       2.945   1.341  21.687  0.00  0.00    +0.000 C 
ATOM      2  C4  UNL     1       2.181   0.252  22.075  0.00  0.00    +0.000 C 
ATOM      3  C5  UNL     1       1.414  -0.413  21.113  0.00  0.00    +0.000 C 
ATOM      4  C7  UNL     1       1.432   0.002  19.775  0.00  0.00    +0.000 C 
ATOM      5  C19 UNL     1       2.224   1.117  19.501  0.00  0.00    +0.000 C 
ATOM      6  N2  UNL     1       2.972   1.781  20.411  0.00  0.00    +0.000 NA
ENDROOT
BRANCH   4   7
ATOM      7  C8  UNL     1       0.633  -0.667  18.676  0.00  0.00    +0.000 C 
ATOM      8  C9  UNL     1      -0.636   0.125  18.282  0.00  0.00    +0.000 C 
ATOM      9  C10 UNL     1      -0.530   0.379  16.780  0.00  0.00    +0.000 C 
ATOM     10  C11 UNL     1       0.364  -0.743  16.251  0.00  0.00    +0.000 C 
ATOM     11  C12 UNL     1      -0.433  -2.030  16.022  0.00  0.00    +0.000 C 
ATOM     12  C13 UNL     1       1.427  -0.837  17.356  0.00  0.00    +0.000 C 
BRANCH  12  13
ATOM     13  C14 UNL     1       2.268  -2.108  17.293  0.00  0.00    +0.000 C 
ATOM     14  O2  UNL     1       2.122  -3.022  18.104  0.00  0.00    +0.000 OA
BRANCH  13  15
ATOM     15  C15 UNL     1       3.273  -2.192  16.150  0.00  0.00    +0.000 C 
BRANCH  15  16
ATOM     16  C16 UNL     1       2.722  -2.898  14.902  0.00  0.00    +0.000 C 
ATOM     17  C17 UNL     1       3.640  -2.639  13.705  0.00  0.00    +0.000 C 
ATOM     18  C18 UNL     1       2.582  -4.405  15.130  0.00  0.00    +0.000 C 
ENDBRANCH  15  16
ENDBRANCH  13  15
ENDBRANCH  12  13
ENDBRANCH   4   7
BRANCH   1  20
ATOM     19  C1  UNL     1       3.749   3.598  22.412  0.00  0.00    +0.000 C 
ATOM     20  C2  UNL     1       3.762   2.104  22.696  0.00  0.00    +0.000 C 
ENDBRANCH   1  20
BRANCH   3  21
ATOM     21  C6  UNL     1       0.637  -1.593  21.547  0.00  0.00    +0.000 C 
ATOM     22  N1  UNL     1       0.997  -2.843  21.507  0.00  0.00    +0.000 NA
BRANCH  22  23
ATOM     23  O1  UNL     1       2.309  -3.008  21.054  0.00  0.00    +0.000 OA
ATOM     24  H   UNL     1       2.996  -2.476  21.405  0.00  0.00    +0.000 HD
ENDBRANCH  22  23
ENDBRANCH   3  21
TORSDOF 7
ENDMDL
MODEL 5
REMARK VINA RESULT:    -5.981      2.690      5.963
REMARK INTER + INTRA:          -9.733
REMARK INTER:                  -8.226
REMARK INTRA:                  -1.507
REMARK UNBOUND:                -1.480
REMARK  Name = teste_hibrido_g3\Hibrido_G3_Top7.pdb
REMARK  11 active torsions:
REMARK  status: ('A' for Active; 'I' for Inactive)
REMARK    1  A    between atoms: C1_1  and  C2_2
REMARK    2  A    between atoms: C2_2  and  C3_3
REMARK    3  A    between atoms: C5_5  and  C6_6
REMARK    4  A    between atoms: N1_7  and  O1_8
REMARK    5  A    between atoms: C7_9  and  C8_10
REMARK    6  A    between atoms: C11_13  and  C12_14
REMARK    7  A    between atoms: C13_15  and  C14_16
REMARK    8  A    between atoms: C14_16  and  C15_18
REMARK    9  A    between atoms: C15_18  and  C16_19
REMARK   10  A    between atoms: C16_19  and  C17_20
REMARK   11  A    between atoms: C16_19  and  C18_21
REMARK                            x       y       z     vdW  Elec       q    Type
REMARK                         _______ _______ _______ _____ _____    ______ ____
ROOT
ATOM      1  C3  UNL     1      18.278  -9.313  -3.839  0.00  0.00    +0.000 C 
ATOM      2  C4  UNL     1      17.922  -7.989  -3.638  0.00  0.00    +0.000 C 
ATOM      3  C5  UNL     1      17.410  -7.609  -2.394  0.00  0.00    +0.000 C 
ATOM      4  C7  UNL     1      17.276  -8.545  -1.360  0.00  0.00    +0.000 C 
ATOM      5  C19 UNL     1      17.651  -9.849  -1.678  0.00  0.00    +0.000 C 
ATOM      6  N2  UNL     1      18.145 -10.247  -2.872  0.00  0.00    +0.000 NA
ENDROOT
BRANCH   4   7
ATOM      7  C8  UNL     1      16.733  -8.210   0.014  0.00  0.00    +0.000 C 
ATOM      8  C9  UNL     1      15.240  -8.575   0.180  0.00  0.00    +0.000 C 
ATOM      9  C10 UNL     1      15.161  -9.501   1.391  0.00  0.00    +0.000 C 
ATOM     10  C11 UNL     1      16.384  -9.151   2.239  0.00  0.00    +0.000 C 
ATOM     11  C12 UNL     1      16.124  -7.918   3.108  0.00  0.00    +0.000 C 
ATOM     12  C13 UNL     1      17.461  -8.957   1.160  0.00  0.00    +0.000 C 
BRANCH  12  13
ATOM     13  C14 UNL     1      18.717  -8.254   1.664  0.00  0.00    +0.000 C 
ATOM     14  O2  UNL     1      19.437  -8.755   2.527  0.00  0.00    +0.000 OA
BRANCH  13  15
ATOM     15  C15 UNL     1      19.045  -6.915   1.013  0.00  0.00    +0.000 C 
BRANCH  15  16
ATOM     16  C16 UNL     1      18.806  -5.711   1.935  0.00  0.00    +0.000 C 
ATOM     17  C17 UNL     1      20.068  -4.848   2.008  0.00  0.00    +0.000 C 
ATOM     18  C18 UNL     1      17.627  -4.863   1.452  0.00  0.00    +0.000 C 
ENDBRANCH  15  16
ENDBRANCH  13  15
ENDBRANCH  12  13
ENDBRANCH   4   7
BRANCH   1  20
ATOM     19  C1  UNL     1      19.062 -11.272  -5.186  0.00  0.00    +0.000 C 
ATOM     20  C2  UNL     1      18.806  -9.773  -5.172  0.00  0.00    +0.000 C 
ENDBRANCH   1  20
BRANCH   3  21
ATOM     21  C6  UNL     1      17.072  -6.183  -2.195  0.00  0.00    +0.000 C 
ATOM     22  N1  UNL     1      17.890  -5.176  -2.101  0.00  0.00    +0.000 NA
BRANCH  22  23
ATOM     23  O1  UNL     1      19.224  -5.550  -2.289  0.00  0.00    +0.000 OA
ATOM     24  H   UNL     1      19.448  -6.168  -2.957  0.00  0.00    +0.000 HD
ENDBRANCH  22  23
ENDBRANCH   3  21
TORSDOF 7
ENDMDL
MODEL 6
REMARK VINA RESULT:    -5.924      2.548      4.636
REMARK INTER + INTRA:          -9.655
REMARK INTER:                  -8.293
REMARK INTRA:                  -1.362
REMARK UNBOUND:                -1.480
REMARK  Name = teste_hibrido_g3\Hibrido_G3_Top7.pdb
REMARK  11 active torsions:
REMARK  status: ('A' for Active; 'I' for Inactive)
REMARK    1  A    between atoms: C1_1  and  C2_2
REMARK    2  A    between atoms: C2_2  and  C3_3
REMARK    3  A    between atoms: C5_5  and  C6_6
REMARK    4  A    between atoms: N1_7  and  O1_8
REMARK    5  A    between atoms: C7_9  and  C8_10
REMARK    6  A    between atoms: C11_13  and  C12_14
REMARK    7  A    between atoms: C13_15  and  C14_16
REMARK    8  A    between atoms: C14_16  and  C15_18
REMARK    9  A    between atoms: C15_18  and  C16_19
REMARK   10  A    between atoms: C16_19  and  C17_20
REMARK   11  A    between atoms: C16_19  and  C18_21
REMARK                            x       y       z     vdW  Elec       q    Type
REMARK                         _______ _______ _______ _____ _____    ______ ____
ROOT
ATOM      1  C3  UNL     1      19.888  -8.614   3.783  0.00  0.00    +0.000 C 
ATOM      2  C4  UNL     1      20.261  -7.694   2.816  0.00  0.00    +0.000 C 
ATOM      3  C5  UNL     1      19.278  -7.155   1.981  0.00  0.00    +0.000 C 
ATOM      4  C7  UNL     1      17.934  -7.523   2.130  0.00  0.00    +0.000 C 
ATOM      5  C19 UNL     1      17.676  -8.466   3.125  0.00  0.00    +0.000 C 
ATOM      6  N2  UNL     1      18.606  -9.007   3.944  0.00  0.00    +0.000 NA
ENDROOT
BRANCH   4   7
ATOM      7  C8  UNL     1      16.812  -6.982   1.268  0.00  0.00    +0.000 C 
ATOM      8  C9  UNL     1      16.481  -7.895   0.065  0.00  0.00    +0.000 C 
ATOM      9  C10 UNL     1      14.993  -8.221   0.176  0.00  0.00    +0.000 C 
ATOM     10  C11 UNL     1      14.391  -7.061   0.970  0.00  0.00    +0.000 C 
ATOM     11  C12 UNL     1      14.106  -5.858   0.067  0.00  0.00    +0.000 C 
ATOM     12  C13 UNL     1      15.474  -6.821   2.032  0.00  0.00    +0.000 C 
BRANCH  12  13
ATOM     13  C14 UNL     1      15.331  -5.492   2.766  0.00  0.00    +0.000 C 
ATOM     14  O2  UNL     1      16.007  -4.509   2.464  0.00  0.00    +0.000 OA
BRANCH  13  15
ATOM     15  C15 UNL     1      14.279  -5.443   3.869  0.00  0.00    +0.000 C 
BRANCH  15  16
ATOM     16  C16 UNL     1      12.889  -5.021   3.370  0.00  0.00    +0.000 C 
ATOM     17  C17 UNL     1      11.837  -5.313   4.443  0.00  0.00    +0.000 C 
ATOM     18  C18 UNL     1      12.855  -3.536   3.002  0.00  0.00    +0.000 C 
ENDBRANCH  15  16
ENDBRANCH  13  15
ENDBRANCH  12  13
ENDBRANCH   4   7
BRANCH   1  20
ATOM     19  C1  UNL     1      21.724 -10.306   3.956  0.00  0.00    +0.000 C 
ATOM     20  C2  UNL     1      20.918  -9.241   4.684  0.00  0.00    +0.000 C 
ENDBRANCH   1  20
BRANCH   3  21
ATOM     21  C6  UNL     1      19.698  -6.151   0.982  0.00  0.00    +0.000 C 
ATOM     22  N1  UNL     1      19.577  -4.856   1.054  0.00  0.00    +0.000 NA
BRANCH  22  23
ATOM     23  O1  UNL     1      19.043  -4.435   2.275  0.00  0.00    +0.000 OA
ATOM     24  H   UNL     1      19.577  -4.437   3.045  0.00  0.00    +0.000 HD
ENDBRANCH  22  23
ENDBRANCH   3  21
TORSDOF 7
ENDMDL
MODEL 7
REMARK VINA RESULT:    -5.847      2.503      5.166
REMARK INTER + INTRA:          -9.549
REMARK INTER:                  -7.825
REMARK INTRA:                  -1.724
REMARK UNBOUND:                -1.480
REMARK  Name = teste_hibrido_g3\Hibrido_G3_Top7.pdb
REMARK  11 active torsions:
REMARK  status: ('A' for Active; 'I' for Inactive)
REMARK    1  A    between atoms: C1_1  and  C2_2
REMARK    2  A    between atoms: C2_2  and  C3_3
REMARK    3  A    between atoms: C5_5  and  C6_6
REMARK    4  A    between atoms: N1_7  and  O1_8
REMARK    5  A    between atoms: C7_9  and  C8_10
REMARK    6  A    between atoms: C11_13  and  C12_14
REMARK    7  A    between atoms: C13_15  and  C14_16
REMARK    8  A    between atoms: C14_16  and  C15_18
REMARK    9  A    between atoms: C15_18  and  C16_19
REMARK   10  A    between atoms: C16_19  and  C17_20
REMARK   11  A    between atoms: C16_19  and  C18_21
REMARK                            x       y       z     vdW  Elec       q    Type
REMARK                         _______ _______ _______ _____ _____    ______ ____
ROOT
ATOM      1  C3  UNL     1      16.233  -4.477   2.414  0.00  0.00    +0.000 C 
ATOM      2  C4  UNL     1      17.483  -4.653   1.841  0.00  0.00    +0.000 C 
ATOM      3  C5  UNL     1      17.964  -5.952   1.656  0.00  0.00    +0.000 C 
ATOM      4  C7  UNL     1      17.190  -7.060   2.024  0.00  0.00    +0.000 C 
ATOM      5  C19 UNL     1      15.956  -6.765   2.603  0.00  0.00    +0.000 C 
ATOM      6  N2  UNL     1      15.467  -5.520   2.799  0.00  0.00    +0.000 NA
ENDROOT
BRANCH   4   7
ATOM      7  C8  UNL     1      17.640  -8.496   1.853  0.00  0.00    +0.000 C 
ATOM      8  C9  UNL     1      18.034  -9.170   3.188  0.00  0.00    +0.000 C 
ATOM      9  C10 UNL     1      17.173 -10.426   3.300  0.00  0.00    +0.000 C 
ATOM     10  C11 UNL     1      16.819 -10.794   1.859  0.00  0.00    +0.000 C 
ATOM     11  C12 UNL     1      17.953 -11.578   1.191  0.00  0.00    +0.000 C 
ATOM     12  C13 UNL     1      16.548  -9.413   1.245  0.00  0.00    +0.000 C 
BRANCH  12  13
ATOM     13  C14 UNL     1      16.512  -9.414  -0.280  0.00  0.00    +0.000 C 
ATOM     14  O2  UNL     1      15.627  -9.995  -0.906  0.00  0.00    +0.000 OA
BRANCH  13  15
ATOM     15  C15 UNL     1      17.614  -8.624  -0.978  0.00  0.00    +0.000 C 
BRANCH  15  16
ATOM     16  C16 UNL     1      17.083  -7.596  -1.988  0.00  0.00    +0.000 C 
ATOM     17  C17 UNL     1      16.084  -6.659  -1.307  0.00  0.00    +0.000 C 
ATOM     18  C18 UNL     1      18.222  -6.779  -2.604  0.00  0.00    +0.000 C 
ENDBRANCH  15  16
ENDBRANCH  13  15
ENDBRANCH  12  13
ENDBRANCH   4   7
BRANCH   1  20
ATOM     19  C1  UNL     1      16.721  -2.196   3.323  0.00  0.00    +0.000 C 
ATOM     20  C2  UNL     1      15.689  -3.095   2.659  0.00  0.00    +0.000 C 
ENDBRANCH   1  20
BRANCH   3  21
ATOM     21  C6  UNL     1      19.285  -6.111   1.011  0.00  0.00    +0.000 C 
ATOM     22  N1  UNL     1      20.439  -6.278   1.589  0.00  0.00    +0.000 NA
BRANCH  22  23
ATOM     23  O1  UNL     1      20.333  -6.377   2.979  0.00  0.00    +0.000 OA
ATOM     24  H   UNL     1      20.605  -5.664   3.522  0.00  0.00    +0.000 HD
ENDBRANCH  22  23
ENDBRANCH   3  21
TORSDOF 7
ENDMDL
MODEL 8
REMARK VINA RESULT:    -5.651     24.589     26.670
REMARK INTER + INTRA:          -9.278
REMARK INTER:                  -7.667
REMARK INTRA:                  -1.612
REMARK UNBOUND:                -1.480
REMARK  Name = teste_hibrido_g3\Hibrido_G3_Top7.pdb
REMARK  11 active torsions:
REMARK  status: ('A' for Active; 'I' for Inactive)
REMARK    1  A    between atoms: C1_1  and  C2_2
REMARK    2  A    between atoms: C2_2  and  C3_3
REMARK    3  A    between atoms: C5_5  and  C6_6
REMARK    4  A    between atoms: N1_7  and  O1_8
REMARK    5  A    between atoms: C7_9  and  C8_10
REMARK    6  A    between atoms: C11_13  and  C12_14
REMARK    7  A    between atoms: C13_15  and  C14_16
REMARK    8  A    between atoms: C14_16  and  C15_18
REMARK    9  A    between atoms: C15_18  and  C16_19
REMARK   10  A    between atoms: C16_19  and  C17_20
REMARK   11  A    between atoms: C16_19  and  C18_21
REMARK                            x       y       z     vdW  Elec       q    Type
REMARK                         _______ _______ _______ _____ _____    ______ ____
ROOT
ATOM      1  C3  UNL     1       0.232  -3.845  18.572  0.00  0.00    +0.000 C 
ATOM      2  C4  UNL     1      -0.841  -3.028  18.889  0.00  0.00    +0.000 C 
ATOM      3  C5  UNL     1      -0.597  -1.809  19.529  0.00  0.00    +0.000 C 
ATOM      4  C7  UNL     1       0.712  -1.410  19.829  0.00  0.00    +0.000 C 
ATOM      5  C19 UNL     1       1.712  -2.316  19.478  0.00  0.00    +0.000 C 
ATOM      6  N2  UNL     1       1.506  -3.502  18.863  0.00  0.00    +0.000 NA
ENDROOT
BRANCH   4   7
ATOM      7  C8  UNL     1       1.058  -0.105  20.517  0.00  0.00    +0.000 C 
ATOM      8  C9  UNL     1       1.477  -0.293  21.993  0.00  0.00    +0.000 C 
ATOM      9  C10 UNL     1       2.860   0.342  22.126  0.00  0.00    +0.000 C 
ATOM     10  C11 UNL     1       2.925   1.386  21.011  0.00  0.00    +0.000 C 
ATOM     11  C12 UNL     1       2.238   2.689  21.428  0.00  0.00    +0.000 C 
ATOM     12  C13 UNL     1       2.241   0.644  19.854  0.00  0.00    +0.000 C 
BRANCH  12  13
ATOM     13  C14 UNL     1       1.835   1.551  18.696  0.00  0.00    +0.000 C 
ATOM     14  O2  UNL     1       2.663   2.215  18.073  0.00  0.00    +0.000 OA
BRANCH  13  15
ATOM     15  C15 UNL     1       0.354   1.558  18.336  0.00  0.00    +0.000 C 
BRANCH  15  16
ATOM     16  C16 UNL     1      -0.352   2.878  18.676  0.00  0.00    +0.000 C 
ATOM     17  C17 UNL     1      -1.237   3.316  17.506  0.00  0.00    +0.000 C 
ATOM     18  C18 UNL     1      -1.199   2.748  19.944  0.00  0.00    +0.000 C 
ENDBRANCH  15  16
ENDBRANCH  13  15
ENDBRANCH  12  13
ENDBRANCH   4   7
BRANCH   1  20
ATOM     19  C1  UNL     1       1.043  -6.203  18.359  0.00  0.00    +0.000 C 
ATOM     20  C2  UNL     1       0.013  -5.179  17.910  0.00  0.00    +0.000 C 
ENDBRANCH   1  20
BRANCH   3  21
ATOM     21  C6  UNL     1      -1.757  -0.941  19.823  0.00  0.00    +0.000 C 
ATOM     22  N1  UNL     1      -2.521  -0.962  20.877  0.00  0.00    +0.000 NA
BRANCH  22  23
ATOM     23  O1  UNL     1      -2.093  -1.891  21.830  0.00  0.00    +0.000 OA
ATOM     24  H   UNL     1      -1.830  -2.750  21.562  0.00  0.00    +0.000 HD
ENDBRANCH  22  23
ENDBRANCH   3  21
TORSDOF 7
ENDMDL
MODEL 9
REMARK VINA RESULT:    -5.627     25.519     27.431
REMARK INTER + INTRA:          -9.245
REMARK INTER:                  -8.020
REMARK INTRA:                  -1.224
REMARK UNBOUND:                -1.480
REMARK  Name = teste_hibrido_g3\Hibrido_G3_Top7.pdb
REMARK  11 active torsions:
REMARK  status: ('A' for Active; 'I' for Inactive)
REMARK    1  A    between atoms: C1_1  and  C2_2
REMARK    2  A    between atoms: C2_2  and  C3_3
REMARK    3  A    between atoms: C5_5  and  C6_6
REMARK    4  A    between atoms: N1_7  and  O1_8
REMARK    5  A    between atoms: C7_9  and  C8_10
REMARK    6  A    between atoms: C11_13  and  C12_14
REMARK    7  A    between atoms: C13_15  and  C14_16
REMARK    8  A    between atoms: C14_16  and  C15_18
REMARK    9  A    between atoms: C15_18  and  C16_19
REMARK   10  A    between atoms: C16_19  and  C17_20
REMARK   11  A    between atoms: C16_19  and  C18_21
REMARK                            x       y       z     vdW  Elec       q    Type
REMARK                         _______ _______ _______ _____ _____    ______ ____
ROOT
ATOM      1  C3  UNL     1      -2.601  -0.468  16.444  0.00  0.00    +0.000 C 
ATOM      2  C4  UNL     1      -3.157  -0.428  17.714  0.00  0.00    +0.000 C 
ATOM      3  C5  UNL     1      -2.413  -0.916  18.793  0.00  0.00    +0.000 C 
ATOM      4  C7  UNL     1      -1.121  -1.419  18.600  0.00  0.00    +0.000 C 
ATOM      5  C19 UNL     1      -0.668  -1.424  17.281  0.00  0.00    +0.000 C 
ATOM      6  N2  UNL     1      -1.365  -0.964  16.218  0.00  0.00    +0.000 NA
ENDROOT
BRANCH   4   7
ATOM      7  C8  UNL     1      -0.253  -1.962  19.717  0.00  0.00    +0.000 C 
ATOM      8  C9  UNL     1       0.263  -3.392  19.441  0.00  0.00    +0.000 C 
ATOM      9  C10 UNL     1       1.786  -3.322  19.544  0.00  0.00    +0.000 C 
ATOM     10  C11 UNL     1       2.066  -2.129  20.458  0.00  0.00    +0.000 C 
ATOM     11  C12 UNL     1       1.940  -2.517  21.934  0.00  0.00    +0.000 C 
ATOM     12  C13 UNL     1       1.020  -1.115  19.971  0.00  0.00    +0.000 C 
BRANCH  12  13
ATOM     13  C14 UNL     1       0.810   0.057  20.924  0.00  0.00    +0.000 C 
ATOM     14  O2  UNL     1      -0.035   0.021  21.818  0.00  0.00    +0.000 OA
BRANCH  13  15
ATOM     15  C15 UNL     1       1.730   1.256  20.727  0.00  0.00    +0.000 C 
BRANCH  15  16
ATOM     16  C16 UNL     1       3.062   1.136  21.483  0.00  0.00    +0.000 C 
ATOM     17  C17 UNL     1       3.986   2.296  21.104  0.00  0.00    +0.000 C 
ATOM     18  C18 UNL     1       2.845   1.122  22.998  0.00  0.00    +0.000 C 
ENDBRANCH  15  16
ENDBRANCH  13  15
ENDBRANCH  12  13
ENDBRANCH   4   7
BRANCH   1  20
ATOM     19  C1  UNL     1      -2.606   1.077  14.476  0.00  0.00    +0.000 C 
ATOM     20  C2  UNL     1      -3.377   0.019  15.250  0.00  0.00    +0.000 C 
ENDBRANCH   1  20
BRANCH   3  21
ATOM     21  C6  UNL     1      -3.017  -0.828  20.139  0.00  0.00    +0.000 C 
ATOM     22  N1  UNL     1      -3.818  -1.681  20.711  0.00  0.00    +0.000 NA
BRANCH  22  23
ATOM     23  O1  UNL     1      -4.033  -2.820  19.930  0.00  0.00    +0.000 OA
ATOM     24  H   UNL     1      -3.674  -3.644  20.194  0.00  0.00    +0.000 HD
ENDBRANCH  22  23
ENDBRANCH   3  21
TORSDOF 7
ENDMDL
