REMARK  Name = 5GP
REMARK  8 active torsions:
REMARK  status: ('A' for Active; 'I' for Inactive)
REMARK    1  A    between atoms: P_1  and  O_3
REMARK    2  A    between atoms: P_1  and  O_4
REMARK    3  A    between atoms: P_1  and  O_5
REMARK    4  A    between atoms: O_5  and  C_6
REMARK    5  A    between atoms: C_6  and  C_7
REMARK    6  A    between atoms: C_9  and  O_10
REMARK    7  A    between atoms: C_11  and  O_12
REMARK    8  A    between atoms: C_13  and  N_14
REMARK                            x       y       z     vdW  Elec       q    Type
REMARK                         _______ _______ _______ _____ _____    ______ ____
ROOT
ATOM      1  C   UNL     1       1.966   1.452  -0.474  0.00  0.00    +0.178 C 
ATOM      2  O   UNL     1       0.981   0.702  -1.159  0.00  0.00    -0.346 OA
ATOM      3  C   UNL     1       1.290   2.296   0.616  0.00  0.00    +0.178 C 
ATOM      4  C   UNL     1       0.008   1.536   0.863  0.00  0.00    +0.195 C 
ATOM      5  C   UNL     1      -0.250   0.856  -0.481  0.00  0.00    +0.253 C 
ENDROOT
BRANCH   5   6
ATOM      6  N   UNL     1      -0.885  -0.448  -0.286  0.00  0.00    -0.285 N 
ATOM      7  C   UNL     1      -0.287  -1.651  -0.074  0.00  0.00    +0.203 A 
ATOM      8  N   UNL     1      -1.172  -2.656   0.177  0.00  0.00    -0.229 NA
ATOM      9  C   UNL     1      -2.360  -2.024   0.124  0.00  0.00    +0.172 A 
ATOM     10  C   UNL     1      -3.636  -2.528   0.328  0.00  0.00    +0.280 A 
ATOM     11  O   UNL     1      -3.822  -3.748   0.583  0.00  0.00    -0.265 OA
ATOM     12  N   UNL     1      -4.689  -1.658   0.248  0.00  0.00    -0.293 N 
ATOM     13  C   UNL     1      -4.489  -0.323  -0.019  0.00  0.00    +0.195 A 
ATOM     14  N   UNL     1      -5.601   0.569  -0.092  0.00  0.00    -0.329 N 
ATOM     15  N   UNL     1      -3.223   0.160  -0.215  0.00  0.00    -0.196 NA
ATOM     16  C   UNL     1      -2.189  -0.712  -0.143  0.00  0.00    +0.171 A 
ATOM     17  H   UNL     1      -5.660  -2.015   0.398  0.00  0.00    +0.172 HD
ATOM     18  H   UNL     1      -5.452   1.582  -0.293  0.00  0.00    +0.145 HD
ATOM     19  H   UNL     1      -6.574   0.221   0.055  0.00  0.00    +0.145 HD
ENDBRANCH   5   6
BRANCH   3  20
ATOM     20  O   UNL     1       1.055   3.614   0.173  0.00  0.00    -0.386 OA
ATOM     21  H   UNL     1       0.593   3.572  -0.705  0.00  0.00    +0.210 HD
ENDBRANCH   3  20
BRANCH   4  22
ATOM     22  O   UNL     1      -1.056   2.350   1.300  0.00  0.00    -0.385 OA
ATOM     23  H   UNL     1      -1.342   2.933   0.550  0.00  0.00    +0.210 HD
ENDBRANCH   4  22
BRANCH   1  24
ATOM     24  C   UNL     1       3.009   0.495   0.117  0.00  0.00    +0.206 C 
BRANCH  24  25
ATOM     25  O   UNL     1       3.567  -0.277  -0.920  0.00  0.00    -0.284 OA
BRANCH  25  26
ATOM     26  P   UNL     1       4.587  -1.458  -0.230  0.00  0.00    +0.472 P 
ATOM     27  O   UNL     1       3.763  -2.462   0.547  0.00  0.00    -0.228 OA
BRANCH  26  28
ATOM     28  O   UNL     1       5.728  -0.735   0.793  0.00  0.00    -0.303 OA
ATOM     29  H   UNL     1       5.276  -0.657   1.671  0.00  0.00    +0.222 HD
ENDBRANCH  26  28
BRANCH  26  30
ATOM     30  O   UNL     1       5.406  -2.263  -1.472  0.00  0.00    -0.303 OA
ATOM     31  H   UNL     1       4.692  -2.591  -2.075  0.00  0.00    +0.222 HD
ENDBRANCH  26  30
ENDBRANCH  25  26
ENDBRANCH  24  25
ENDBRANCH   1  24
TORSDOF 8
