MODEL 5
REMARK VINA RESULT:    -5.303      1.625      4.622
REMARK INTER + INTRA:          -7.165
REMARK INTER:                  -6.801
REMARK INTRA:                  -0.364
REMARK UNBOUND:                -0.467
REMARK  Name = AMQ
REMARK  7 active torsions:
REMARK  status: ('A' for Active; 'I' for Inactive)
REMARK    1  A    between atoms: N_1  and  CA_2
REMARK    2  A    between atoms: CA_2  and  C_3
REMARK    3  A    between atoms: CA_2  and  C_6
REMARK    4  A    between atoms: C_3  and  OXT_5
REMARK    5  A    between atoms: C_6  and  C_7
REMARK    6  A    between atoms: C_8  and  O_11
REMARK    7  A    between atoms: C_9  and  C_10
REMARK                            x       y       z     vdW  Elec       q    Type
REMARK                         _______ _______ _______ _____ _____    ______ ____
ROOT
ATOM      1  C   UNL     1      -1.575  49.066   8.161  0.00  0.00    +0.074 C 
ENDROOT
BRANCH   1   2
ATOM      2  C   UNL     1      -1.054  49.420   9.527  0.00  0.00    +0.059 A 
ATOM      3  C   UNL     1      -0.149  50.403   9.876  0.00  0.00    +0.256 A 
ATOM      4  C   UNL     1      -1.320  48.791  10.730  0.00  0.00    +0.141 A 
ATOM      5  C   UNL     1      -2.233  47.631  10.953  0.00  0.00    +0.089 C 
ATOM      6  N   UNL     1       0.090  50.360  11.200  0.00  0.00    -0.040 NA
ATOM      7  O   UNL     1      -0.628  49.383  11.677  0.00  0.00    -0.356 OA
BRANCH   3   8
ATOM      8  O   UNL     1       0.457  51.317   9.020  0.00  0.00    -0.490 OA
ATOM      9  H   UNL     1       0.344  51.258   8.015  0.00  0.00    +0.294 HD
ENDBRANCH   3   8
ENDBRANCH   1   2
BRANCH   1  10
ATOM     10  CA  UNL     1      -0.559  48.236   7.355  0.00  0.00    +0.165 C 
BRANCH  10  11
ATOM     11  N   UNL     1       0.355  49.109   6.615  0.00  0.00    -0.318 NA
ATOM     12  H1  UNL     1       1.337  48.835   6.848  0.00  0.00    +0.119 HD
ATOM     13  H2  UNL     1       0.247  48.912   5.594  0.00  0.00    +0.119 HD
ENDBRANCH  10  11
BRANCH  10  14
ATOM     14  C   UNL     1      -1.297  47.347   6.394  0.00  0.00    +0.322 C 
ATOM     15  O   UNL     1      -2.422  47.697   5.947  0.00  0.00    -0.249 OA
BRANCH  14  16
ATOM     16  OXT UNL     1      -0.724  46.151   5.972  0.00  0.00    -0.480 OA
ATOM     17  HXT UNL     1      -0.007  46.142   5.256  0.00  0.00    +0.295 HD
ENDBRANCH  14  16
ENDBRANCH  10  14
ENDBRANCH   1  10
TORSDOF 6
ENDMDL
