MODEL 12
REMARK VINA RESULT:    -4.983      4.303      6.533
REMARK INTER + INTRA:          -6.761
REMARK INTER:                  -6.237
REMARK INTRA:                  -0.524
REMARK UNBOUND:                -0.467
REMARK  Name = AMQ
REMARK  7 active torsions:
REMARK  status: ('A' for Active; 'I' for Inactive)
REMARK    1  A    between atoms: N_1  and  CA_2
REMARK    2  A    between atoms: CA_2  and  C_3
REMARK    3  A    between atoms: CA_2  and  C_6
REMARK    4  A    between atoms: C_3  and  OXT_5
REMARK    5  A    between atoms: C_6  and  C_7
REMARK    6  A    between atoms: C_8  and  O_11
REMARK    7  A    between atoms: C_9  and  C_10
REMARK                            x       y       z     vdW  Elec       q    Type
REMARK                         _______ _______ _______ _____ _____    ______ ____
ROOT
ATOM      1  C   UNL     1      -3.111  47.035  11.424  0.00  0.00    +0.074 C 
ENDROOT
BRANCH   1   2
ATOM      2  C   UNL     1      -2.416  47.955  12.390  0.00  0.00    +0.059 A 
ATOM      3  C   UNL     1      -2.630  48.101  13.747  0.00  0.00    +0.256 A 
ATOM      4  C   UNL     1      -1.453  48.908  12.115  0.00  0.00    +0.141 A 
ATOM      5  C   UNL     1      -0.842  49.210  10.786  0.00  0.00    +0.089 C 
ATOM      6  N   UNL     1      -1.833  49.069  14.236  0.00  0.00    -0.040 NA
ATOM      7  O   UNL     1      -1.143  49.528  13.232  0.00  0.00    -0.356 OA
BRANCH   3   8
ATOM      8  O   UNL     1      -3.530  47.383  14.528  0.00  0.00    -0.490 OA
ATOM      9  H   UNL     1      -4.531  47.470  14.399  0.00  0.00    +0.294 HD
ENDBRANCH   3   8
ENDBRANCH   1   2
BRANCH   1  10
ATOM     10  CA  UNL     1      -2.389  45.681  11.298  0.00  0.00    +0.165 C 
BRANCH  10  11
ATOM     11  N   UNL     1      -2.090  45.380   9.895  0.00  0.00    -0.318 NA
ATOM     12  H1  UNL     1      -2.459  44.427   9.675  0.00  0.00    +0.119 HD
ATOM     13  H2  UNL     1      -2.637  46.036   9.292  0.00  0.00    +0.119 HD
ENDBRANCH  10  11
BRANCH  10  14
ATOM     14  C   UNL     1      -3.260  44.600  11.871  0.00  0.00    +0.322 C 
ATOM     15  O   UNL     1      -3.450  43.533  11.226  0.00  0.00    -0.249 OA
BRANCH  14  16
ATOM     16  OXT UNL     1      -3.836  44.762  13.128  0.00  0.00    -0.480 OA
ATOM     17  HXT UNL     1      -4.587  44.157  13.437  0.00  0.00    +0.295 HD
ENDBRANCH  14  16
ENDBRANCH  10  14
ENDBRANCH   1  10
TORSDOF 6
ENDMDL
