MODEL 17
REMARK VINA RESULT:    -4.828      3.570      4.856
REMARK INTER + INTRA:          -6.565
REMARK INTER:                  -6.321
REMARK INTRA:                  -0.244
REMARK UNBOUND:                -0.467
REMARK  Name = AMQ
REMARK  7 active torsions:
REMARK  status: ('A' for Active; 'I' for Inactive)
REMARK    1  A    between atoms: N_1  and  CA_2
REMARK    2  A    between atoms: CA_2  and  C_3
REMARK    3  A    between atoms: CA_2  and  C_6
REMARK    4  A    between atoms: C_3  and  OXT_5
REMARK    5  A    between atoms: C_6  and  C_7
REMARK    6  A    between atoms: C_8  and  O_11
REMARK    7  A    between atoms: C_9  and  C_10
REMARK                            x       y       z     vdW  Elec       q    Type
REMARK                         _______ _______ _______ _____ _____    ______ ____
ROOT
ATOM      1  C   UNL     1      -2.678  48.078  11.191  0.00  0.00    +0.074 C 
ENDROOT
BRANCH   1   2
ATOM      2  C   UNL     1      -2.347  46.710  11.725  0.00  0.00    +0.059 A 
ATOM      3  C   UNL     1      -1.856  45.615  11.043  0.00  0.00    +0.256 A 
ATOM      4  C   UNL     1      -2.528  46.232  13.010  0.00  0.00    +0.141 A 
ATOM      5  C   UNL     1      -3.055  46.988  14.184  0.00  0.00    +0.089 C 
ATOM      6  N   UNL     1      -1.744  44.565  11.878  0.00  0.00    -0.040 NA
ATOM      7  O   UNL     1      -2.154  44.972  13.046  0.00  0.00    -0.356 OA
BRANCH   3   8
ATOM      8  O   UNL     1      -1.521  45.557   9.694  0.00  0.00    -0.490 OA
ATOM      9  H   UNL     1      -0.676  45.096   9.376  0.00  0.00    +0.294 HD
ENDBRANCH   3   8
ENDBRANCH   1   2
BRANCH   1  10
ATOM     10  CA  UNL     1      -1.429  48.974  11.090  0.00  0.00    +0.165 C 
BRANCH  10  11
ATOM     11  N   UNL     1      -1.120  49.582  12.387  0.00  0.00    -0.318 NA
ATOM     12  H1  UNL     1      -1.891  50.242  12.636  0.00  0.00    +0.119 HD
ATOM     13  H2  UNL     1      -1.147  48.835  13.118  0.00  0.00    +0.119 HD
ENDBRANCH  10  11
BRANCH  10  14
ATOM     14  C   UNL     1      -1.674  50.052  10.073  0.00  0.00    +0.322 C 
ATOM     15  O   UNL     1      -1.206  49.939   8.908  0.00  0.00    -0.249 OA
BRANCH  14  16
ATOM     16  OXT UNL     1      -2.444  51.162  10.407  0.00  0.00    -0.480 OA
ATOM     17  HXT UNL     1      -3.200  51.087  11.077  0.00  0.00    +0.295 HD
ENDBRANCH  14  16
ENDBRANCH  10  14
ENDBRANCH   1  10
TORSDOF 6
ENDMDL
