MODEL 19
REMARK VINA RESULT:    -4.723      3.409      4.115
REMARK INTER + INTRA:          -6.432
REMARK INTER:                  -6.243
REMARK INTRA:                  -0.189
REMARK UNBOUND:                -0.467
REMARK  Name = AMQ
REMARK  7 active torsions:
REMARK  status: ('A' for Active; 'I' for Inactive)
REMARK    1  A    between atoms: N_1  and  CA_2
REMARK    2  A    between atoms: CA_2  and  C_3
REMARK    3  A    between atoms: CA_2  and  C_6
REMARK    4  A    between atoms: C_3  and  OXT_5
REMARK    5  A    between atoms: C_6  and  C_7
REMARK    6  A    between atoms: C_8  and  O_11
REMARK    7  A    between atoms: C_9  and  C_10
REMARK                            x       y       z     vdW  Elec       q    Type
REMARK                         _______ _______ _______ _____ _____    ______ ____
ROOT
ATOM      1  C   UNL     1      -0.791  46.257   9.557  0.00  0.00    +0.074 C 
ENDROOT
BRANCH   1   2
ATOM      2  C   UNL     1      -0.821  46.270   8.053  0.00  0.00    +0.059 A 
ATOM      3  C   UNL     1      -0.498  45.253   7.176  0.00  0.00    +0.256 A 
ATOM      4  C   UNL     1      -1.118  47.330   7.216  0.00  0.00    +0.141 A 
ATOM      5  C   UNL     1      -1.527  48.707   7.623  0.00  0.00    +0.089 C 
ATOM      6  N   UNL     1      -0.611  45.687   5.907  0.00  0.00    -0.040 NA
ATOM      7  O   UNL     1      -0.984  46.934   5.970  0.00  0.00    -0.356 OA
BRANCH   3   8
ATOM      8  O   UNL     1      -0.101  43.962   7.509  0.00  0.00    -0.490 OA
ATOM      9  H   UNL     1       0.138  43.281   6.799  0.00  0.00    +0.294 HD
ENDBRANCH   3   8
ENDBRANCH   1   2
BRANCH   1  10
ATOM     10  CA  UNL     1      -2.206  46.294  10.162  0.00  0.00    +0.165 C 
BRANCH  10  11
ATOM     11  N   UNL     1      -2.316  47.358  11.163  0.00  0.00    -0.318 NA
ATOM     12  H1  UNL     1      -2.888  47.003  11.963  0.00  0.00    +0.119 HD
ATOM     13  H2  UNL     1      -1.366  47.538  11.560  0.00  0.00    +0.119 HD
ENDBRANCH  10  11
BRANCH  10  14
ATOM     14  C   UNL     1      -2.507  44.967  10.800  0.00  0.00    +0.322 C 
ATOM     15  O   UNL     1      -3.394  44.218  10.311  0.00  0.00    -0.249 OA
BRANCH  14  16
ATOM     16  OXT UNL     1      -1.784  44.551  11.915  0.00  0.00    -0.480 OA
ATOM     17  HXT UNL     1      -2.258  44.252  12.759  0.00  0.00    +0.295 HD
ENDBRANCH  14  16
ENDBRANCH  10  14
ENDBRANCH   1  10
TORSDOF 6
ENDMDL
