MODEL 18
REMARK VINA RESULT:    -4.736      2.305      2.977
REMARK INTER + INTRA:          -6.448
REMARK INTER:                  -6.308
REMARK INTRA:                  -0.140
REMARK UNBOUND:                -0.467
REMARK  Name = AMQ
REMARK  7 active torsions:
REMARK  status: ('A' for Active; 'I' for Inactive)
REMARK    1  A    between atoms: N_1  and  CA_2
REMARK    2  A    between atoms: CA_2  and  C_3
REMARK    3  A    between atoms: CA_2  and  C_6
REMARK    4  A    between atoms: C_3  and  OXT_5
REMARK    5  A    between atoms: C_6  and  C_7
REMARK    6  A    between atoms: C_8  and  O_11
REMARK    7  A    between atoms: C_9  and  C_10
REMARK                            x       y       z     vdW  Elec       q    Type
REMARK                         _______ _______ _______ _____ _____    ______ ____
ROOT
ATOM      1  C   UNL     1      -1.643  48.782   8.100  0.00  0.00    +0.074 C 
ENDROOT
BRANCH   1   2
ATOM      2  C   UNL     1      -1.622  47.290   8.297  0.00  0.00    +0.059 A 
ATOM      3  C   UNL     1      -1.318  46.304   7.379  0.00  0.00    +0.256 A 
ATOM      4  C   UNL     1      -1.970  46.576   9.429  0.00  0.00    +0.141 A 
ATOM      5  C   UNL     1      -2.405  47.134  10.744  0.00  0.00    +0.089 C 
ATOM      6  N   UNL     1      -1.467  45.091   7.943  0.00  0.00    -0.040 NA
ATOM      7  O   UNL     1      -1.856  45.293   9.169  0.00  0.00    -0.356 OA
BRANCH   3   8
ATOM      8  O   UNL     1      -0.923  46.490   6.058  0.00  0.00    -0.490 OA
ATOM      9  H   UNL     1      -1.483  46.152   5.285  0.00  0.00    +0.294 HD
ENDBRANCH   3   8
ENDBRANCH   1   2
BRANCH   1  10
ATOM     10  CA  UNL     1      -0.226  49.384   8.115  0.00  0.00    +0.165 C 
BRANCH  10  11
ATOM     11  N   UNL     1       0.536  48.952   6.941  0.00  0.00    -0.318 NA
ATOM     12  H1  UNL     1       0.214  47.995   6.671  0.00  0.00    +0.119 HD
ATOM     13  H2  UNL     1       0.280  49.568   6.136  0.00  0.00    +0.119 HD
ENDBRANCH  10  11
BRANCH  10  14
ATOM     14  C   UNL     1       0.484  48.947   9.365  0.00  0.00    +0.322 C 
ATOM     15  O   UNL     1       1.237  47.936   9.344  0.00  0.00    -0.249 OA
BRANCH  14  16
ATOM     16  OXT UNL     1       0.336  49.676  10.542  0.00  0.00    -0.480 OA
ATOM     17  HXT UNL     1       1.137  50.103  10.993  0.00  0.00    +0.295 HD
ENDBRANCH  14  16
ENDBRANCH  10  14
ENDBRANCH   1  10
TORSDOF 6
ENDMDL
