MODEL 7
REMARK VINA RESULT:    -5.132      4.419      5.065
REMARK INTER + INTRA:          -6.949
REMARK INTER:                  -6.478
REMARK INTRA:                  -0.471
REMARK UNBOUND:                -0.467
REMARK  Name = AMQ
REMARK  7 active torsions:
REMARK  status: ('A' for Active; 'I' for Inactive)
REMARK    1  A    between atoms: N_1  and  CA_2
REMARK    2  A    between atoms: CA_2  and  C_3
REMARK    3  A    between atoms: CA_2  and  C_6
REMARK    4  A    between atoms: C_3  and  OXT_5
REMARK    5  A    between atoms: C_6  and  C_7
REMARK    6  A    between atoms: C_8  and  O_11
REMARK    7  A    between atoms: C_9  and  C_10
REMARK                            x       y       z     vdW  Elec       q    Type
REMARK                         _______ _______ _______ _____ _____    ______ ____
ROOT
ATOM      1  C   UNL     1      -2.316  47.473  11.305  0.00  0.00    +0.074 C 
ENDROOT
BRANCH   1   2
ATOM      2  C   UNL     1      -2.791  46.061  11.094  0.00  0.00    +0.059 A 
ATOM      3  C   UNL     1      -2.682  44.979  11.944  0.00  0.00    +0.256 A 
ATOM      4  C   UNL     1      -3.386  45.523   9.967  0.00  0.00    +0.141 A 
ATOM      5  C   UNL     1      -3.737  46.242   8.707  0.00  0.00    +0.089 C 
ATOM      6  N   UNL     1      -3.191  43.880  11.357  0.00  0.00    -0.040 NA
ATOM      7  O   UNL     1      -3.603  44.244  10.176  0.00  0.00    -0.356 OA
BRANCH   3   8
ATOM      8  O   UNL     1      -2.128  44.977  13.221  0.00  0.00    -0.490 OA
ATOM      9  H   UNL     1      -1.164  45.244  13.381  0.00  0.00    +0.294 HD
ENDBRANCH   3   8
ENDBRANCH   1   2
BRANCH   1  10
ATOM     10  CA  UNL     1      -3.257  48.264  12.232  0.00  0.00    +0.165 C 
BRANCH  10  11
ATOM     11  N   UNL     1      -3.657  49.529  11.611  0.00  0.00    -0.318 NA
ATOM     12  H1  UNL     1      -2.796  50.025  11.284  0.00  0.00    +0.119 HD
ATOM     13  H2  UNL     1      -4.200  49.314  10.743  0.00  0.00    +0.119 HD
ENDBRANCH  10  11
BRANCH  10  14
ATOM     14  C   UNL     1      -2.555  48.541  13.532  0.00  0.00    +0.322 C 
ATOM     15  O   UNL     1      -2.520  49.714  13.994  0.00  0.00    -0.249 OA
BRANCH  14  16
ATOM     16  OXT UNL     1      -1.968  47.498  14.242  0.00  0.00    -0.480 OA
ATOM     17  HXT UNL     1      -1.345  47.684  15.019  0.00  0.00    +0.295 HD
ENDBRANCH  14  16
ENDBRANCH  10  14
ENDBRANCH   1  10
TORSDOF 6
ENDMDL
