MODEL 3
REMARK VINA RESULT:    -5.481      4.411      6.478
REMARK INTER + INTRA:          -7.390
REMARK INTER:                  -6.938
REMARK INTRA:                  -0.452
REMARK UNBOUND:                -0.467
REMARK  Name = AMQ
REMARK  7 active torsions:
REMARK  status: ('A' for Active; 'I' for Inactive)
REMARK    1  A    between atoms: N_1  and  CA_2
REMARK    2  A    between atoms: CA_2  and  C_3
REMARK    3  A    between atoms: CA_2  and  C_6
REMARK    4  A    between atoms: C_3  and  OXT_5
REMARK    5  A    between atoms: C_6  and  C_7
REMARK    6  A    between atoms: C_8  and  O_11
REMARK    7  A    between atoms: C_9  and  C_10
REMARK                            x       y       z     vdW  Elec       q    Type
REMARK                         _______ _______ _______ _____ _____    ______ ____
ROOT
ATOM      1  C   UNL     1      -3.004  47.288  12.543  0.00  0.00    +0.074 C 
ENDROOT
BRANCH   1   2
ATOM      2  C   UNL     1      -2.131  48.510  12.635  0.00  0.00    +0.059 A 
ATOM      3  C   UNL     1      -1.970  49.376  13.698  0.00  0.00    +0.256 A 
ATOM      4  C   UNL     1      -1.345  49.071  11.644  0.00  0.00    +0.141 A 
ATOM      5  C   UNL     1      -1.148  48.558  10.256  0.00  0.00    +0.089 C 
ATOM      6  N   UNL     1      -1.133  50.373  13.356  0.00  0.00    -0.040 NA
ATOM      7  O   UNL     1      -0.780  50.157  12.121  0.00  0.00    -0.356 OA
BRANCH   3   8
ATOM      8  O   UNL     1      -2.569  49.276  14.950  0.00  0.00    -0.490 OA
ATOM      9  H   UNL     1      -2.405  48.480  15.554  0.00  0.00    +0.294 HD
ENDBRANCH   3   8
ENDBRANCH   1   2
BRANCH   1  10
ATOM     10  CA  UNL     1      -2.546  46.179  13.507  0.00  0.00    +0.165 C 
BRANCH  10  11
ATOM     11  N   UNL     1      -2.193  44.963  12.771  0.00  0.00    -0.318 NA
ATOM     12  H1  UNL     1      -2.022  45.218  11.772  0.00  0.00    +0.119 HD
ATOM     13  H2  UNL     1      -1.274  44.614  13.129  0.00  0.00    +0.119 HD
ENDBRANCH  10  11
BRANCH  10  14
ATOM     14  C   UNL     1      -3.653  45.877  14.477  0.00  0.00    +0.322 C 
ATOM     15  O   UNL     1      -4.422  46.798  14.864  0.00  0.00    -0.249 OA
BRANCH  14  16
ATOM     16  OXT UNL     1      -3.850  44.575  14.927  0.00  0.00    -0.480 OA
ATOM     17  HXT UNL     1      -4.765  44.263  15.229  0.00  0.00    +0.295 HD
ENDBRANCH  14  16
ENDBRANCH  10  14
ENDBRANCH   1  10
TORSDOF 6
ENDMDL
