MODEL 4
REMARK VINA RESULT:    -5.386      4.604      6.653
REMARK INTER + INTRA:          -7.269
REMARK INTER:                  -6.813
REMARK INTRA:                  -0.456
REMARK UNBOUND:                -0.467
REMARK  Name = AMQ
REMARK  7 active torsions:
REMARK  status: ('A' for Active; 'I' for Inactive)
REMARK    1  A    between atoms: N_1  and  CA_2
REMARK    2  A    between atoms: CA_2  and  C_3
REMARK    3  A    between atoms: CA_2  and  C_6
REMARK    4  A    between atoms: C_3  and  OXT_5
REMARK    5  A    between atoms: C_6  and  C_7
REMARK    6  A    between atoms: C_8  and  O_11
REMARK    7  A    between atoms: C_9  and  C_10
REMARK                            x       y       z     vdW  Elec       q    Type
REMARK                         _______ _______ _______ _____ _____    ______ ____
ROOT
ATOM      1  C   UNL     1      -2.343  45.358  12.099  0.00  0.00    +0.074 C 
ENDROOT
BRANCH   1   2
ATOM      2  C   UNL     1      -2.749  46.511  12.977  0.00  0.00    +0.059 A 
ATOM      3  C   UNL     1      -2.449  47.851  12.833  0.00  0.00    +0.256 A 
ATOM      4  C   UNL     1      -3.459  46.468  14.163  0.00  0.00    +0.141 A 
ATOM      5  C   UNL     1      -4.032  45.258  14.824  0.00  0.00    +0.089 C 
ATOM      6  N   UNL     1      -2.963  48.550  13.863  0.00  0.00    -0.040 NA
ATOM      7  O   UNL     1      -3.560  47.690  14.638  0.00  0.00    -0.356 OA
BRANCH   3   8
ATOM      8  O   UNL     1      -1.722  48.435  11.801  0.00  0.00    -0.490 OA
ATOM      9  H   UNL     1      -2.173  48.768  10.957  0.00  0.00    +0.294 HD
ENDBRANCH   3   8
ENDBRANCH   1   2
BRANCH   1  10
ATOM     10  CA  UNL     1      -3.492  44.900  11.183  0.00  0.00    +0.165 C 
BRANCH  10  11
ATOM     11  N   UNL     1      -3.700  43.454  11.293  0.00  0.00    -0.318 NA
ATOM     12  H1  UNL     1      -3.936  43.080  10.347  0.00  0.00    +0.119 HD
ATOM     13  H2  UNL     1      -2.789  43.008  11.548  0.00  0.00    +0.119 HD
ENDBRANCH  10  11
BRANCH  10  14
ATOM     14  C   UNL     1      -3.164  45.256   9.761  0.00  0.00    +0.322 C 
ATOM     15  O   UNL     1      -3.420  44.443   8.831  0.00  0.00    -0.249 OA
BRANCH  14  16
ATOM     16  OXT UNL     1      -2.604  46.495   9.464  0.00  0.00    -0.480 OA
ATOM     17  HXT UNL     1      -1.974  46.605   8.679  0.00  0.00    +0.295 HD
ENDBRANCH  14  16
ENDBRANCH  10  14
ENDBRANCH   1  10
TORSDOF 6
ENDMDL
