MODEL 16
REMARK VINA RESULT:    -4.866      4.173      5.394
REMARK INTER + INTRA:          -6.613
REMARK INTER:                  -6.102
REMARK INTRA:                  -0.512
REMARK UNBOUND:                -0.467
REMARK  Name = AMQ
REMARK  7 active torsions:
REMARK  status: ('A' for Active; 'I' for Inactive)
REMARK    1  A    between atoms: N_1  and  CA_2
REMARK    2  A    between atoms: CA_2  and  C_3
REMARK    3  A    between atoms: CA_2  and  C_6
REMARK    4  A    between atoms: C_3  and  OXT_5
REMARK    5  A    between atoms: C_6  and  C_7
REMARK    6  A    between atoms: C_8  and  O_11
REMARK    7  A    between atoms: C_9  and  C_10
REMARK                            x       y       z     vdW  Elec       q    Type
REMARK                         _______ _______ _______ _____ _____    ______ ____
ROOT
ATOM      1  C   UNL     1      -2.990  47.138  10.656  0.00  0.00    +0.074 C 
ENDROOT
BRANCH   1   2
ATOM      2  C   UNL     1      -3.299  45.774  11.210  0.00  0.00    +0.059 A 
ATOM      3  C   UNL     1      -3.522  44.596  10.524  0.00  0.00    +0.256 A 
ATOM      4  C   UNL     1      -3.495  45.416  12.531  0.00  0.00    +0.141 A 
ATOM      5  C   UNL     1      -3.395  46.304  13.727  0.00  0.00    +0.089 C 
ATOM      6  N   UNL     1      -3.816  43.609  11.390  0.00  0.00    -0.040 NA
ATOM      7  O   UNL     1      -3.790  44.136  12.581  0.00  0.00    -0.356 OA
BRANCH   3   8
ATOM      8  O   UNL     1      -3.469  44.413   9.145  0.00  0.00    -0.490 OA
ATOM      9  H   UNL     1      -3.965  43.656   8.692  0.00  0.00    +0.294 HD
ENDBRANCH   3   8
ENDBRANCH   1   2
BRANCH   1  10
ATOM     10  CA  UNL     1      -1.480  47.340  10.433  0.00  0.00    +0.165 C 
BRANCH  10  11
ATOM     11  N   UNL     1      -1.071  48.689  10.831  0.00  0.00    -0.318 NA
ATOM     12  H1  UNL     1      -1.803  49.084  11.464  0.00  0.00    +0.119 HD
ATOM     13  H2  UNL     1      -0.208  48.614  11.417  0.00  0.00    +0.119 HD
ENDBRANCH  10  11
BRANCH  10  14
ATOM     14  C   UNL     1      -1.161  47.125   8.980  0.00  0.00    +0.322 C 
ATOM     15  O   UNL     1       0.037  47.135   8.588  0.00  0.00    -0.249 OA
BRANCH  14  16
ATOM     16  OXT UNL     1      -2.187  46.884   8.070  0.00  0.00    -0.480 OA
ATOM     17  HXT UNL     1      -3.078  46.515   8.379  0.00  0.00    +0.295 HD
ENDBRANCH  14  16
ENDBRANCH  10  14
ENDBRANCH   1  10
TORSDOF 6
ENDMDL
