MODEL 14
REMARK VINA RESULT:    -4.926      3.453      3.972
REMARK INTER + INTRA:          -6.688
REMARK INTER:                  -6.189
REMARK INTRA:                  -0.500
REMARK UNBOUND:                -0.467
REMARK  Name = AMQ
REMARK  7 active torsions:
REMARK  status: ('A' for Active; 'I' for Inactive)
REMARK    1  A    between atoms: N_1  and  CA_2
REMARK    2  A    between atoms: CA_2  and  C_3
REMARK    3  A    between atoms: CA_2  and  C_6
REMARK    4  A    between atoms: C_3  and  OXT_5
REMARK    5  A    between atoms: C_6  and  C_7
REMARK    6  A    between atoms: C_8  and  O_11
REMARK    7  A    between atoms: C_9  and  C_10
REMARK                            x       y       z     vdW  Elec       q    Type
REMARK                         _______ _______ _______ _____ _____    ______ ____
ROOT
ATOM      1  C   UNL     1      -1.414  47.564  10.879  0.00  0.00    +0.074 C 
ENDROOT
BRANCH   1   2
ATOM      2  C   UNL     1      -0.993  47.016   9.543  0.00  0.00    +0.059 A 
ATOM      3  C   UNL     1      -0.352  45.825   9.263  0.00  0.00    +0.256 A 
ATOM      4  C   UNL     1      -1.097  47.621   8.304  0.00  0.00    +0.141 A 
ATOM      5  C   UNL     1      -1.703  48.952   8.002  0.00  0.00    +0.089 C 
ATOM      6  N   UNL     1      -0.109  45.733   7.942  0.00  0.00    -0.040 NA
ATOM      7  O   UNL     1      -0.569  46.825   7.401  0.00  0.00    -0.356 OA
BRANCH   3   8
ATOM      8  O   UNL     1       0.014  44.843  10.178  0.00  0.00    -0.490 OA
ATOM      9  H   UNL     1       0.890  44.341  10.094  0.00  0.00    +0.294 HD
ENDBRANCH   3   8
ENDBRANCH   1   2
BRANCH   1  10
ATOM     10  CA  UNL     1      -2.664  46.851  11.426  0.00  0.00    +0.165 C 
BRANCH  10  11
ATOM     11  N   UNL     1      -3.680  47.823  11.836  0.00  0.00    -0.318 NA
ATOM     12  H1  UNL     1      -3.916  47.654  12.839  0.00  0.00    +0.119 HD
ATOM     13  H2  UNL     1      -3.255  48.778  11.808  0.00  0.00    +0.119 HD
ENDBRANCH  10  11
BRANCH  10  14
ATOM     14  C   UNL     1      -2.276  46.001  12.602  0.00  0.00    +0.322 C 
ATOM     15  O   UNL     1      -1.989  44.785  12.436  0.00  0.00    -0.249 OA
BRANCH  14  16
ATOM     16  OXT UNL     1      -2.202  46.564  13.874  0.00  0.00    -0.480 OA
ATOM     17  HXT UNL     1      -2.725  46.170  14.647  0.00  0.00    +0.295 HD
ENDBRANCH  14  16
ENDBRANCH  10  14
ENDBRANCH   1  10
TORSDOF 6
ENDMDL
