MODEL 11
REMARK VINA RESULT:    -5.002      2.215      4.769
REMARK INTER + INTRA:          -6.785
REMARK INTER:                  -6.420
REMARK INTRA:                  -0.365
REMARK UNBOUND:                -0.467
REMARK  Name = AMQ
REMARK  7 active torsions:
REMARK  status: ('A' for Active; 'I' for Inactive)
REMARK    1  A    between atoms: N_1  and  CA_2
REMARK    2  A    between atoms: CA_2  and  C_3
REMARK    3  A    between atoms: CA_2  and  C_6
REMARK    4  A    between atoms: C_3  and  OXT_5
REMARK    5  A    between atoms: C_6  and  C_7
REMARK    6  A    between atoms: C_8  and  O_11
REMARK    7  A    between atoms: C_9  and  C_10
REMARK                            x       y       z     vdW  Elec       q    Type
REMARK                         _______ _______ _______ _____ _____    ______ ____
ROOT
ATOM      1  C   UNL     1      -2.311  47.425   6.598  0.00  0.00    +0.074 C 
ENDROOT
BRANCH   1   2
ATOM      2  C   UNL     1      -1.800  48.488   7.534  0.00  0.00    +0.059 A 
ATOM      3  C   UNL     1      -0.563  49.101   7.548  0.00  0.00    +0.256 A 
ATOM      4  C   UNL     1      -2.441  49.036   8.630  0.00  0.00    +0.141 A 
ATOM      5  C   UNL     1      -3.820  48.727   9.112  0.00  0.00    +0.089 C 
ATOM      6  N   UNL     1      -0.489  49.963   8.579  0.00  0.00    -0.040 NA
ATOM      7  O   UNL     1      -1.630  49.897   9.204  0.00  0.00    -0.356 OA
BRANCH   3   8
ATOM      8  O   UNL     1       0.483  48.886   6.655  0.00  0.00    -0.490 OA
ATOM      9  H   UNL     1       1.441  49.106   6.899  0.00  0.00    +0.294 HD
ENDBRANCH   3   8
ENDBRANCH   1   2
BRANCH   1  10
ATOM     10  CA  UNL     1      -1.618  46.071   6.833  0.00  0.00    +0.165 C 
BRANCH  10  11
ATOM     11  N   UNL     1      -0.402  45.961   6.024  0.00  0.00    -0.318 NA
ATOM     12  H1  UNL     1      -0.370  46.770   5.363  0.00  0.00    +0.119 HD
ATOM     13  H2  UNL     1       0.426  46.083   6.652  0.00  0.00    +0.119 HD
ENDBRANCH  10  11
BRANCH  10  14
ATOM     14  C   UNL     1      -2.565  44.961   6.474  0.00  0.00    +0.322 C 
ATOM     15  O   UNL     1      -2.942  44.815   5.279  0.00  0.00    -0.249 OA
BRANCH  14  16
ATOM     16  OXT UNL     1      -3.003  44.074   7.453  0.00  0.00    -0.480 OA
ATOM     17  HXT UNL     1      -2.353  43.671   8.117  0.00  0.00    +0.295 HD
ENDBRANCH  14  16
ENDBRANCH  10  14
ENDBRANCH   1  10
TORSDOF 6
ENDMDL
