MODEL 10
REMARK VINA RESULT:    -5.025      2.840      3.677
REMARK INTER + INTRA:          -6.814
REMARK INTER:                  -6.482
REMARK INTRA:                  -0.332
REMARK UNBOUND:                -0.467
REMARK  Name = AMQ
REMARK  7 active torsions:
REMARK  status: ('A' for Active; 'I' for Inactive)
REMARK    1  A    between atoms: N_1  and  CA_2
REMARK    2  A    between atoms: CA_2  and  C_3
REMARK    3  A    between atoms: CA_2  and  C_6
REMARK    4  A    between atoms: C_3  and  OXT_5
REMARK    5  A    between atoms: C_6  and  C_7
REMARK    6  A    between atoms: C_8  and  O_11
REMARK    7  A    between atoms: C_9  and  C_10
REMARK                            x       y       z     vdW  Elec       q    Type
REMARK                         _______ _______ _______ _____ _____    ______ ____
ROOT
ATOM      1  C   UNL     1      -2.073  47.331   8.698  0.00  0.00    +0.074 C 
ENDROOT
BRANCH   1   2
ATOM      2  C   UNL     1      -1.148  47.838   7.625  0.00  0.00    +0.059 A 
ATOM      3  C   UNL     1      -0.883  47.288   6.386  0.00  0.00    +0.256 A 
ATOM      4  C   UNL     1      -0.307  48.934   7.674  0.00  0.00    +0.141 A 
ATOM      5  C   UNL     1      -0.160  49.904   8.800  0.00  0.00    +0.089 C 
ATOM      6  N   UNL     1       0.045  48.023   5.746  0.00  0.00    -0.040 NA
ATOM      7  O   UNL     1       0.366  49.000   6.546  0.00  0.00    -0.356 OA
BRANCH   3   8
ATOM      8  O   UNL     1      -1.458  46.142   5.844  0.00  0.00    -0.490 OA
ATOM      9  H   UNL     1      -1.755  46.106   4.876  0.00  0.00    +0.294 HD
ENDBRANCH   3   8
ENDBRANCH   1   2
BRANCH   1  10
ATOM     10  CA  UNL     1      -1.698  45.911   9.158  0.00  0.00    +0.165 C 
BRANCH  10  11
ATOM     11  N   UNL     1      -2.549  44.912   8.507  0.00  0.00    -0.318 NA
ATOM     12  H1  UNL     1      -3.396  44.759   9.101  0.00  0.00    +0.119 HD
ATOM     13  H2  UNL     1      -2.908  45.315   7.611  0.00  0.00    +0.119 HD
ENDBRANCH  10  11
BRANCH  10  14
ATOM     14  C   UNL     1      -1.858  45.815  10.649  0.00  0.00    +0.322 C 
ATOM     15  O   UNL     1      -1.305  44.877  11.284  0.00  0.00    -0.249 OA
BRANCH  14  16
ATOM     16  OXT UNL     1      -2.592  46.779  11.334  0.00  0.00    -0.480 OA
ATOM     17  HXT UNL     1      -2.987  46.580  12.246  0.00  0.00    +0.295 HD
ENDBRANCH  14  16
ENDBRANCH  10  14
ENDBRANCH   1  10
TORSDOF 6
ENDMDL
