MODEL 2
REMARK VINA RESULT:    -5.514      4.891      7.160
REMARK INTER + INTRA:          -7.432
REMARK INTER:                  -7.087
REMARK INTRA:                  -0.344
REMARK UNBOUND:                -0.467
REMARK  Name = AMQ
REMARK  7 active torsions:
REMARK  status: ('A' for Active; 'I' for Inactive)
REMARK    1  A    between atoms: N_1  and  CA_2
REMARK    2  A    between atoms: CA_2  and  C_3
REMARK    3  A    between atoms: CA_2  and  C_6
REMARK    4  A    between atoms: C_3  and  OXT_5
REMARK    5  A    between atoms: C_6  and  C_7
REMARK    6  A    between atoms: C_8  and  O_11
REMARK    7  A    between atoms: C_9  and  C_10
REMARK                            x       y       z     vdW  Elec       q    Type
REMARK                         _______ _______ _______ _____ _____    ______ ____
ROOT
ATOM      1  C   UNL     1      -2.396  45.531  11.979  0.00  0.00    +0.074 C 
ENDROOT
BRANCH   1   2
ATOM      2  C   UNL     1      -2.909  46.302  13.165  0.00  0.00    +0.059 A 
ATOM      3  C   UNL     1      -3.655  45.844  14.233  0.00  0.00    +0.256 A 
ATOM      4  C   UNL     1      -2.800  47.659  13.410  0.00  0.00    +0.141 A 
ATOM      5  C   UNL     1      -2.098  48.670  12.565  0.00  0.00    +0.089 C 
ATOM      6  N   UNL     1      -3.953  46.866  15.057  0.00  0.00    -0.040 NA
ATOM      7  O   UNL     1      -3.424  47.935  14.533  0.00  0.00    -0.356 OA
BRANCH   3   8
ATOM      8  O   UNL     1      -4.068  44.535  14.459  0.00  0.00    -0.490 OA
ATOM      9  H   UNL     1      -4.396  43.945  13.704  0.00  0.00    +0.294 HD
ENDBRANCH   3   8
ENDBRANCH   1   2
BRANCH   1  10
ATOM     10  CA  UNL     1      -3.542  44.938  11.139  0.00  0.00    +0.165 C 
BRANCH  10  11
ATOM     11  N   UNL     1      -3.635  43.490  11.335  0.00  0.00    -0.318 NA
ATOM     12  H1  UNL     1      -4.543  43.159  10.936  0.00  0.00    +0.119 HD
ATOM     13  H2  UNL     1      -2.894  43.029  10.759  0.00  0.00    +0.119 HD
ENDBRANCH  10  11
BRANCH  10  14
ATOM     14  C   UNL     1      -3.295  45.235   9.687  0.00  0.00    +0.322 C 
ATOM     15  O   UNL     1      -2.976  46.400   9.326  0.00  0.00    -0.249 OA
BRANCH  14  16
ATOM     16  OXT UNL     1      -3.390  44.218   8.742  0.00  0.00    -0.480 OA
ATOM     17  HXT UNL     1      -2.674  43.504   8.674  0.00  0.00    +0.295 HD
ENDBRANCH  14  16
ENDBRANCH  10  14
ENDBRANCH   1  10
TORSDOF 6
ENDMDL
