MODEL 20
REMARK VINA RESULT:    -4.682      3.177      4.979
REMARK INTER + INTRA:          -6.381
REMARK INTER:                  -5.875
REMARK INTRA:                  -0.505
REMARK UNBOUND:                -0.467
REMARK  Name = AMQ
REMARK  7 active torsions:
REMARK  status: ('A' for Active; 'I' for Inactive)
REMARK    1  A    between atoms: N_1  and  CA_2
REMARK    2  A    between atoms: CA_2  and  C_3
REMARK    3  A    between atoms: CA_2  and  C_6
REMARK    4  A    between atoms: C_3  and  OXT_5
REMARK    5  A    between atoms: C_6  and  C_7
REMARK    6  A    between atoms: C_8  and  O_11
REMARK    7  A    between atoms: C_9  and  C_10
REMARK                            x       y       z     vdW  Elec       q    Type
REMARK                         _______ _______ _______ _____ _____    ______ ____
ROOT
ATOM      1  C   UNL     1      -2.119  47.623  10.347  0.00  0.00    +0.074 C 
ENDROOT
BRANCH   1   2
ATOM      2  C   UNL     1      -1.103  48.699  10.619  0.00  0.00    +0.059 A 
ATOM      3  C   UNL     1      -0.831  49.346  11.808  0.00  0.00    +0.256 A 
ATOM      4  C   UNL     1      -0.262  49.323   9.716  0.00  0.00    +0.141 A 
ATOM      5  C   UNL     1      -0.137  49.034   8.256  0.00  0.00    +0.089 C 
ATOM      6  N   UNL     1       0.118  50.281  11.615  0.00  0.00    -0.040 NA
ATOM      7  O   UNL     1       0.434  50.238  10.353  0.00  0.00    -0.356 OA
BRANCH   3   8
ATOM      8  O   UNL     1      -1.430  49.107  13.041  0.00  0.00    -0.490 OA
ATOM      9  H   UNL     1      -1.400  49.793  13.786  0.00  0.00    +0.294 HD
ENDBRANCH   3   8
ENDBRANCH   1   2
BRANCH   1  10
ATOM     10  CA  UNL     1      -1.525  46.213  10.521  0.00  0.00    +0.165 C 
BRANCH  10  11
ATOM     11  N   UNL     1      -1.729  45.410   9.312  0.00  0.00    -0.318 NA
ATOM     12  H1  UNL     1      -2.706  45.561   8.975  0.00  0.00    +0.119 HD
ATOM     13  H2  UNL     1      -1.112  45.788   8.556  0.00  0.00    +0.119 HD
ENDBRANCH  10  11
BRANCH  10  14
ATOM     14  C   UNL     1      -2.183  45.539  11.691  0.00  0.00    +0.322 C 
ATOM     15  O   UNL     1      -2.343  46.166  12.773  0.00  0.00    -0.249 OA
BRANCH  14  16
ATOM     16  OXT UNL     1      -2.645  44.231  11.572  0.00  0.00    -0.480 OA
ATOM     17  HXT UNL     1      -3.177  43.941  10.761  0.00  0.00    +0.295 HD
ENDBRANCH  14  16
ENDBRANCH  10  14
ENDBRANCH   1  10
TORSDOF 6
ENDMDL
