MODEL 13
REMARK VINA RESULT:    -4.976      4.354      5.738
REMARK INTER + INTRA:          -6.752
REMARK INTER:                  -6.427
REMARK INTRA:                  -0.325
REMARK UNBOUND:                -0.467
REMARK  Name = AMQ
REMARK  7 active torsions:
REMARK  status: ('A' for Active; 'I' for Inactive)
REMARK    1  A    between atoms: N_1  and  CA_2
REMARK    2  A    between atoms: CA_2  and  C_3
REMARK    3  A    between atoms: CA_2  and  C_6
REMARK    4  A    between atoms: C_3  and  OXT_5
REMARK    5  A    between atoms: C_6  and  C_7
REMARK    6  A    between atoms: C_8  and  O_11
REMARK    7  A    between atoms: C_9  and  C_10
REMARK                            x       y       z     vdW  Elec       q    Type
REMARK                         _______ _______ _______ _____ _____    ______ ____
ROOT
ATOM      1  C   UNL     1      -2.884  48.501  12.344  0.00  0.00    +0.074 C 
ENDROOT
BRANCH   1   2
ATOM      2  C   UNL     1      -2.837  47.073  12.815  0.00  0.00    +0.059 A 
ATOM      3  C   UNL     1      -3.318  46.538  13.994  0.00  0.00    +0.256 A 
ATOM      4  C   UNL     1      -2.238  45.992  12.195  0.00  0.00    +0.141 A 
ATOM      5  C   UNL     1      -1.535  45.988  10.878  0.00  0.00    +0.089 C 
ATOM      6  N   UNL     1      -3.031  45.225  14.054  0.00  0.00    -0.040 NA
ATOM      7  O   UNL     1      -2.385  44.933  12.961  0.00  0.00    -0.356 OA
BRANCH   3   8
ATOM      8  O   UNL     1      -3.997  47.219  15.000  0.00  0.00    -0.490 OA
ATOM      9  H   UNL     1      -3.553  47.959  15.532  0.00  0.00    +0.294 HD
ENDBRANCH   3   8
ENDBRANCH   1   2
BRANCH   1  10
ATOM     10  CA  UNL     1      -1.881  49.391  13.102  0.00  0.00    +0.165 C 
BRANCH  10  11
ATOM     11  N   UNL     1      -2.544  50.584  13.635  0.00  0.00    -0.318 NA
ATOM     12  H1  UNL     1      -3.570  50.502  13.454  0.00  0.00    +0.119 HD
ATOM     13  H2  UNL     1      -2.444  50.581  14.676  0.00  0.00    +0.119 HD
ENDBRANCH  10  11
BRANCH  10  14
ATOM     14  C   UNL     1      -0.778  49.801  12.168  0.00  0.00    +0.322 C 
ATOM     15  O   UNL     1      -0.844  49.504  10.945  0.00  0.00    -0.249 OA
BRANCH  14  16
ATOM     16  OXT UNL     1       0.303  50.535  12.647  0.00  0.00    -0.480 OA
ATOM     17  HXT UNL     1       0.885  51.073  12.016  0.00  0.00    +0.295 HD
ENDBRANCH  14  16
ENDBRANCH  10  14
ENDBRANCH   1  10
TORSDOF 6
ENDMDL
