MODEL 6
REMARK VINA RESULT:    -5.143      4.319      5.813
REMARK INTER + INTRA:          -6.963
REMARK INTER:                  -6.629
REMARK INTRA:                  -0.334
REMARK UNBOUND:                -0.467
REMARK  Name = AMQ
REMARK  7 active torsions:
REMARK  status: ('A' for Active; 'I' for Inactive)
REMARK    1  A    between atoms: N_1  and  CA_2
REMARK    2  A    between atoms: CA_2  and  C_3
REMARK    3  A    between atoms: CA_2  and  C_6
REMARK    4  A    between atoms: C_3  and  OXT_5
REMARK    5  A    between atoms: C_6  and  C_7
REMARK    6  A    between atoms: C_8  and  O_11
REMARK    7  A    between atoms: C_9  and  C_10
REMARK                            x       y       z     vdW  Elec       q    Type
REMARK                         _______ _______ _______ _____ _____    ______ ____
ROOT
ATOM      1  C   UNL     1      -3.187  47.361  12.495  0.00  0.00    +0.074 C 
ENDROOT
BRANCH   1   2
ATOM      2  C   UNL     1      -2.091  48.196  11.892  0.00  0.00    +0.059 A 
ATOM      3  C   UNL     1      -1.326  47.935  10.772  0.00  0.00    +0.256 A 
ATOM      4  C   UNL     1      -1.565  49.383  12.368  0.00  0.00    +0.141 A 
ATOM      5  C   UNL     1      -2.003  50.138  13.580  0.00  0.00    +0.089 C 
ATOM      6  N   UNL     1      -0.417  48.913  10.598  0.00  0.00    -0.040 NA
ATOM      7  O   UNL     1      -0.590  49.762  11.571  0.00  0.00    -0.356 OA
BRANCH   3   8
ATOM      8  O   UNL     1      -1.436  46.834   9.928  0.00  0.00    -0.490 OA
ATOM      9  H   UNL     1      -1.221  45.897  10.248  0.00  0.00    +0.294 HD
ENDBRANCH   3   8
ENDBRANCH   1   2
BRANCH   1  10
ATOM     10  CA  UNL     1      -2.632  46.282  13.443  0.00  0.00    +0.165 C 
BRANCH  10  11
ATOM     11  N   UNL     1      -2.179  45.111  12.688  0.00  0.00    -0.318 NA
ATOM     12  H1  UNL     1      -1.415  45.409  12.041  0.00  0.00    +0.119 HD
ATOM     13  H2  UNL     1      -1.732  44.440  13.355  0.00  0.00    +0.119 HD
ENDBRANCH  10  11
BRANCH  10  14
ATOM     14  C   UNL     1      -3.706  45.873  14.411  0.00  0.00    +0.322 C 
ATOM     15  O   UNL     1      -4.596  46.698  14.753  0.00  0.00    -0.249 OA
BRANCH  14  16
ATOM     16  OXT UNL     1      -3.738  44.573  14.908  0.00  0.00    -0.480 OA
ATOM     17  HXT UNL     1      -4.035  44.388  15.858  0.00  0.00    +0.295 HD
ENDBRANCH  14  16
ENDBRANCH  10  14
ENDBRANCH   1  10
TORSDOF 6
ENDMDL
