MODEL 8
REMARK VINA RESULT:    -5.108      4.827      5.574
REMARK INTER + INTRA:          -6.919
REMARK INTER:                  -6.496
REMARK INTRA:                  -0.422
REMARK UNBOUND:                -0.467
REMARK  Name = AMQ
REMARK  7 active torsions:
REMARK  status: ('A' for Active; 'I' for Inactive)
REMARK    1  A    between atoms: N_1  and  CA_2
REMARK    2  A    between atoms: CA_2  and  C_3
REMARK    3  A    between atoms: CA_2  and  C_6
REMARK    4  A    between atoms: C_3  and  OXT_5
REMARK    5  A    between atoms: C_6  and  C_7
REMARK    6  A    between atoms: C_8  and  O_11
REMARK    7  A    between atoms: C_9  and  C_10
REMARK                            x       y       z     vdW  Elec       q    Type
REMARK                         _______ _______ _______ _____ _____    ______ ____
ROOT
ATOM      1  C   UNL     1      -2.542  46.817  11.954  0.00  0.00    +0.074 C 
ENDROOT
BRANCH   1   2
ATOM      2  C   UNL     1      -3.320  46.100  10.883  0.00  0.00    +0.059 A 
ATOM      3  C   UNL     1      -3.512  44.742  10.721  0.00  0.00    +0.256 A 
ATOM      4  C   UNL     1      -3.958  46.647   9.785  0.00  0.00    +0.141 A 
ATOM      5  C   UNL     1      -4.061  48.094   9.435  0.00  0.00    +0.089 C 
ATOM      6  N   UNL     1      -4.229  44.510   9.606  0.00  0.00    -0.040 NA
ATOM      7  O   UNL     1      -4.478  45.672   9.072  0.00  0.00    -0.356 OA
BRANCH   3   8
ATOM      8  O   UNL     1      -3.047  43.731  11.556  0.00  0.00    -0.490 OA
ATOM      9  H   UNL     1      -2.212  43.849  12.117  0.00  0.00    +0.294 HD
ENDBRANCH   3   8
ENDBRANCH   1   2
BRANCH   1  10
ATOM     10  CA  UNL     1      -3.377  47.021  13.232  0.00  0.00    +0.165 C 
BRANCH  10  11
ATOM     11  N   UNL     1      -3.031  48.288  13.881  0.00  0.00    -0.318 NA
ATOM     12  H1  UNL     1      -2.555  48.901  13.181  0.00  0.00    +0.119 HD
ATOM     13  H2  UNL     1      -3.917  48.786  14.128  0.00  0.00    +0.119 HD
ENDBRANCH  10  11
BRANCH  10  14
ATOM     14  C   UNL     1      -3.120  45.883  14.178  0.00  0.00    +0.322 C 
ATOM     15  O   UNL     1      -2.031  45.249  14.124  0.00  0.00    -0.249 OA
BRANCH  14  16
ATOM     16  OXT UNL     1      -4.071  45.546  15.137  0.00  0.00    -0.480 OA
ATOM     17  HXT UNL     1      -5.033  45.849  15.043  0.00  0.00    +0.295 HD
ENDBRANCH  14  16
ENDBRANCH  10  14
ENDBRANCH   1  10
TORSDOF 6
ENDMDL
