REMARK  Name = ligantes_geracao2\Derivado_003.pdb
REMARK  10 active torsions:
REMARK  status: ('A' for Active; 'I' for Inactive)
REMARK    1  A    between atoms: C1_1  and  C2_2
REMARK    2  A    between atoms: C2_2  and  C3_3
REMARK    3  A    between atoms: C2_2  and  C4_4
REMARK    4  A    between atoms: C4_4  and  C5_5
REMARK    5  A    between atoms: C4_4  and  C6_6
REMARK    6  A    between atoms: C6_6  and  C7_8
REMARK    7  A    between atoms: C8_9  and  C9_10
REMARK    8  A    between atoms: C12_13  and  C13_14
REMARK    9  A    between atoms: C17_19  and  C18_20
REMARK   10  A    between atoms: N2_21  and  O2_22
REMARK                            x       y       z     vdW  Elec       q    Type
REMARK                         _______ _______ _______ _____ _____    ______ ____
ROOT
ATOM      1  C7  UNL     1      -0.155  -0.633  -0.401  0.00  0.00    +0.000 C 
ATOM      2  C8  UNL     1      -0.643  -2.080  -0.152  0.00  0.00    +0.000 C 
ATOM      3  C9  UNL     1      -0.412  -2.979  -1.366  0.00  0.00    +0.000 C 
ATOM      4  C10 UNL     1       0.147  -2.568   1.078  0.00  0.00    +0.000 C 
ATOM      5  C11 UNL     1       1.190  -1.495   1.396  0.00  0.00    +0.000 C 
ATOM      6  C12 UNL     1       1.307  -0.672   0.109  0.00  0.00    +0.000 C 
ENDROOT
BRANCH   6   7
ATOM      7  C13 UNL     1       2.180   0.561   0.220  0.00  0.00    +0.000 C 
ATOM      8  C14 UNL     1       1.665   1.854   0.187  0.00  0.00    +0.000 C 
ATOM      9  N1  UNL     1       2.394   2.995   0.261  0.00  0.00    +0.000 NA
ATOM     10  C15 UNL     1       3.723   2.867   0.399  0.00  0.00    +0.000 C 
ATOM     11  C16 UNL     1       4.360   1.648   0.443  0.00  0.00    +0.000 C 
ATOM     12  C17 UNL     1       3.587   0.485   0.342  0.00  0.00    +0.000 C 
BRANCH  12  13
ATOM     13  C18 UNL     1       4.318  -0.807   0.334  0.00  0.00    +0.000 C 
ATOM     14  N2  UNL     1       5.602  -0.878   0.507  0.00  0.00    +0.000 NA
BRANCH  14  15
ATOM     15  O2  UNL     1       5.996  -2.220   0.440  0.00  0.00    +0.000 OA
ATOM     16  H   UNL     1       6.898  -2.449   0.545  0.00  0.00    +0.000 HD
ENDBRANCH  14  15
ENDBRANCH  12  13
ENDBRANCH   6   7
BRANCH   1  17
ATOM     17  C6  UNL     1      -1.149   0.290   0.315  0.00  0.00    +0.000 C 
ATOM     18  O1  UNL     1      -0.962   0.677   1.467  0.00  0.00    +0.000 OA
BRANCH  17  19
ATOM     19  C4  UNL     1      -2.399   0.692  -0.482  0.00  0.00    +0.000 C 
ATOM     20  C5  UNL     1      -2.091   1.940  -1.307  0.00  0.00    +0.000 C 
BRANCH  19  22
ATOM     21  C1  UNL     1      -4.932   0.590  -0.373  0.00  0.00    +0.000 C 
ATOM     22  C2  UNL     1      -3.646   0.811   0.432  0.00  0.00    +0.000 C 
ATOM     23  C3  UNL     1      -3.748   2.140   1.188  0.00  0.00    +0.000 C 
ENDBRANCH  19  22
ENDBRANCH  17  19
ENDBRANCH   1  17
TORSDOF 6
