REMARK  Name = ligantes_geracao2\Derivado_005.pdb
REMARK  10 active torsions:
REMARK  status: ('A' for Active; 'I' for Inactive)
REMARK    1  A    between atoms: C1_1  and  C2_2
REMARK    2  A    between atoms: C4_4  and  C5_5
REMARK    3  A    between atoms: N1_6  and  O1_7
REMARK    4  A    between atoms: C6_8  and  C7_9
REMARK    5  A    between atoms: C10_12  and  C11_13
REMARK    6  A    between atoms: C12_14  and  C13_15
REMARK    7  A    between atoms: C13_15  and  C14_17
REMARK    8  A    between atoms: C14_17  and  C15_18
REMARK    9  A    between atoms: C15_18  and  C16_19
REMARK   10  A    between atoms: C15_18  and  C17_20
REMARK                            x       y       z     vdW  Elec       q    Type
REMARK                         _______ _______ _______ _____ _____    ______ ____
ROOT
ATOM      1  C7  UNL     1      -1.260  -1.170  -0.287  0.00  0.00    +0.000 C 
ATOM      2  C8  UNL     1      -1.391  -1.560  -1.776  0.00  0.00    +0.000 C 
ATOM      3  C9  UNL     1      -0.398  -2.707  -2.003  0.00  0.00    +0.000 C 
ATOM      4  C10 UNL     1       0.336  -2.908  -0.672  0.00  0.00    +0.000 C 
ATOM      5  C11 UNL     1       1.761  -3.415  -0.833  0.00  0.00    +0.000 C 
ATOM      6  C12 UNL     1       0.182  -1.575   0.074  0.00  0.00    +0.000 C 
ENDROOT
BRANCH   1  11
ATOM      7  C1  UNL     1      -2.804   4.266   1.018  0.00  0.00    +0.000 C 
ATOM      8  C2  UNL     1      -2.413   2.848   0.730  0.00  0.00    +0.000 C 
ATOM      9  C3  UNL     1      -2.609   1.857   1.677  0.00  0.00    +0.000 C 
ATOM     10  C4  UNL     1      -2.223   0.543   1.381  0.00  0.00    +0.000 C 
ATOM     11  C6  UNL     1      -1.669   0.227   0.127  0.00  0.00    +0.000 C 
ATOM     12  C18 UNL     1      -1.503   1.309  -0.738  0.00  0.00    +0.000 C 
ATOM     13  N2  UNL     1      -1.857   2.588  -0.467  0.00  0.00    +0.000 NA
BRANCH  10  14
ATOM     14  C5  UNL     1      -2.443  -0.418   2.488  0.00  0.00    +0.000 C 
ATOM     15  N1  UNL     1      -1.843  -1.561   2.584  0.00  0.00    +0.000 NA
BRANCH  15  16
ATOM     16  O1  UNL     1      -2.266  -2.197   3.756  0.00  0.00    +0.000 OA
ATOM     17  H   UNL     1      -1.926  -3.041   3.980  0.00  0.00    +0.000 HD
ENDBRANCH  15  16
ENDBRANCH  10  14
ENDBRANCH   1  11
BRANCH   6  18
ATOM     18  C13 UNL     1       1.209  -0.514  -0.333  0.00  0.00    +0.000 C 
ATOM     19  O2  UNL     1       1.392  -0.218  -1.512  0.00  0.00    +0.000 OA
BRANCH  18  20
ATOM     20  C14 UNL     1       1.974   0.138   0.815  0.00  0.00    +0.000 C 
BRANCH  20  21
ATOM     21  C15 UNL     1       2.899   1.312   0.462  0.00  0.00    +0.000 C 
ATOM     22  C16 UNL     1       2.142   2.501  -0.129  0.00  0.00    +0.000 C 
ATOM     23  C17 UNL     1       4.068   0.899  -0.431  0.00  0.00    +0.000 C 
ENDBRANCH  20  21
ENDBRANCH  18  20
ENDBRANCH   6  18
TORSDOF 6
