REMARK  Name = ligantes_geracao2\Derivado_008.pdb
REMARK  9 active torsions:
REMARK  status: ('A' for Active; 'I' for Inactive)
REMARK    1  A    between atoms: C1_1  and  C2_2
REMARK    2  A    between atoms: C2_2  and  C3_4
REMARK    3  A    between atoms: C7_9  and  C8_10
REMARK    4  A    between atoms: C11_13  and  C12_14
REMARK    5  A    between atoms: C13_15  and  C14_16
REMARK    6  A    between atoms: C14_16  and  C15_18
REMARK    7  A    between atoms: C15_18  and  C16_19
REMARK    8  A    between atoms: C16_19  and  C17_20
REMARK    9  A    between atoms: C16_19  and  C18_21
REMARK                            x       y       z     vdW  Elec       q    Type
REMARK                         _______ _______ _______ _____ _____    ______ ____
ROOT
ATOM      1  C8  UNL     1      -1.084   0.954   0.814  0.00  0.00    +0.000 C 
ATOM      2  C9  UNL     1      -1.492   0.870   2.300  0.00  0.00    +0.000 C 
ATOM      3  C10 UNL     1      -0.196   1.016   3.106  0.00  0.00    +0.000 C 
ATOM      4  C11 UNL     1       0.931   1.160   2.079  0.00  0.00    +0.000 C 
ATOM      5  C12 UNL     1       2.274   0.650   2.579  0.00  0.00    +0.000 C 
ATOM      6  C13 UNL     1       0.391   0.500   0.800  0.00  0.00    +0.000 C 
ENDROOT
BRANCH   1  12
ATOM      7  C3  UNL     1      -2.235   0.828  -1.476  0.00  0.00    +0.000 C 
ATOM      8  C4  UNL     1      -3.091   0.187  -2.377  0.00  0.00    +0.000 C 
ATOM      9  C5  UNL     1      -3.693  -0.987  -1.976  0.00  0.00    +0.000 C 
ATOM     10  N1  UNL     1      -3.490  -1.545  -0.770  0.00  0.00    +0.000 NA
ATOM     11  C6  UNL     1      -2.653  -0.906   0.082  0.00  0.00    +0.000 C 
ATOM     12  C7  UNL     1      -1.997   0.292  -0.196  0.00  0.00    +0.000 C 
BRANCH   7  14
ATOM     13  C1  UNL     1      -2.406   3.134  -2.585  0.00  0.00    +0.000 C 
ATOM     14  C2  UNL     1      -1.561   2.065  -1.943  0.00  0.00    +0.000 C 
ATOM     15  O1  UNL     1      -0.345   2.179  -1.823  0.00  0.00    +0.000 OA
ENDBRANCH   7  14
ENDBRANCH   1  12
BRANCH   6  16
ATOM     16  C14 UNL     1       0.530  -1.022   0.765  0.00  0.00    +0.000 C 
ATOM     17  O2  UNL     1       0.218  -1.731   1.724  0.00  0.00    +0.000 OA
BRANCH  16  18
ATOM     18  C15 UNL     1       1.036  -1.641  -0.526  0.00  0.00    +0.000 C 
BRANCH  18  19
ATOM     19  C16 UNL     1       2.559  -1.539  -0.663  0.00  0.00    +0.000 C 
ATOM     20  C17 UNL     1       3.272  -2.484   0.305  0.00  0.00    +0.000 C 
ATOM     21  C18 UNL     1       2.978  -1.855  -2.100  0.00  0.00    +0.000 C 
ENDBRANCH  18  19
ENDBRANCH  16  18
ENDBRANCH   6  16
TORSDOF 5
