REMARK  Name = ligantes_geracao2\Derivado_016.pdb
REMARK  6 active torsions:
REMARK  status: ('A' for Active; 'I' for Inactive)
REMARK    1  A    between atoms: C1_1  and  C2_2
REMARK    2  A    between atoms: C2_2  and  C3_3
REMARK    3  A    between atoms: C3_3  and  C4_5
REMARK    4  A    between atoms: C5_6  and  C6_7
REMARK    5  A    between atoms: C9_10  and  C10_11
REMARK    6  A    between atoms: C14_16  and  C15_17
REMARK                            x       y       z     vdW  Elec       q    Type
REMARK                         _______ _______ _______ _____ _____    ______ ____
ROOT
ATOM      1  C4  UNL     1      -0.484   0.429   0.412  0.00  0.00    +0.000 C 
ATOM      2  C5  UNL     1      -0.939   1.832  -0.012  0.00  0.00    +0.000 C 
ATOM      3  C6  UNL     1      -1.631   2.603   1.104  0.00  0.00    +0.000 C 
ATOM      4  C7  UNL     1       0.366   2.493  -0.452  0.00  0.00    +0.000 C 
ATOM      5  C8  UNL     1       1.131   1.391  -1.180  0.00  0.00    +0.000 C 
ATOM      6  C9  UNL     1       0.580   0.054  -0.642  0.00  0.00    +0.000 C 
ENDROOT
BRANCH   6   7
ATOM      7  C10 UNL     1       1.640  -0.925  -0.174  0.00  0.00    +0.000 C 
ATOM      8  C11 UNL     1       1.712  -2.169  -0.806  0.00  0.00    +0.000 C 
ATOM      9  N1  UNL     1       2.607  -3.139  -0.510  0.00  0.00    +0.000 NA
ATOM     10  C12 UNL     1       3.478  -2.885   0.482  0.00  0.00    +0.000 C 
ATOM     11  C13 UNL     1       3.501  -1.697   1.185  0.00  0.00    +0.000 C 
ATOM     12  C14 UNL     1       2.573  -0.703   0.853  0.00  0.00    +0.000 C 
BRANCH  12  13
ATOM     13  C15 UNL     1       2.634   0.522   1.597  0.00  0.00    +0.000 C 
ATOM     14  N2  UNL     1       2.695   1.511   2.201  0.00  0.00    +0.000 NA
ENDBRANCH  12  13
ENDBRANCH   6   7
BRANCH   1  15
ATOM     15  C3  UNL     1      -1.582  -0.630   0.478  0.00  0.00    +0.000 C 
ATOM     16  O1  UNL     1      -1.488  -1.548   1.297  0.00  0.00    +0.000 OA
BRANCH  15  18
ATOM     17  C1  UNL     1      -3.595  -1.813  -0.487  0.00  0.00    +0.000 C 
ATOM     18  C2  UNL     1      -2.735  -0.561  -0.510  0.00  0.00    +0.000 C 
ENDBRANCH  15  18
ENDBRANCH   1  15
TORSDOF 4
