REMARK  Name = ligantes_geracao2\Derivado_025.pdb
REMARK  6 active torsions:
REMARK  status: ('A' for Active; 'I' for Inactive)
REMARK    1  A    between atoms: C1_1  and  C2_2
REMARK    2  A    between atoms: C2_2  and  C3_3
REMARK    3  A    between atoms: C2_2  and  C4_4
REMARK    4  A    between atoms: C4_4  and  C5_6
REMARK    5  A    between atoms: C9_11  and  C10_12
REMARK    6  A    between atoms: C14_17  and  C15_18
REMARK                            x       y       z     vdW  Elec       q    Type
REMARK                         _______ _______ _______ _____ _____    ______ ____
ROOT
ATOM      1  C5  UNL     1      -0.868  -0.038   1.085  0.00  0.00    +0.000 C 
ATOM      2  C6  UNL     1      -1.281   0.295   2.519  0.00  0.00    +0.000 C 
ATOM      3  F1  UNL     1      -1.777  -0.847   3.078  0.00  0.00    +0.000 F 
ATOM      4  C7  UNL     1      -0.006   0.670   3.261  0.00  0.00    +0.000 C 
ATOM      5  C8  UNL     1       1.073  -0.117   2.532  0.00  0.00    +0.000 C 
ATOM      6  C9  UNL     1       0.671   0.060   1.062  0.00  0.00    +0.000 C 
ENDROOT
BRANCH   6   7
ATOM      7  C10 UNL     1       1.316  -0.906   0.093  0.00  0.00    +0.000 C 
ATOM      8  C11 UNL     1       1.274  -2.284   0.319  0.00  0.00    +0.000 C 
ATOM      9  N1  UNL     1       1.798  -3.219  -0.504  0.00  0.00    +0.000 NA
ATOM     10  C12 UNL     1       2.410  -2.773  -1.616  0.00  0.00    +0.000 C 
ATOM     11  C13 UNL     1       2.508  -1.436  -1.951  0.00  0.00    +0.000 C 
ATOM     12  C14 UNL     1       1.952  -0.484  -1.089  0.00  0.00    +0.000 C 
BRANCH  12  13
ATOM     13  C15 UNL     1       2.044   0.932  -1.469  0.00  0.00    +0.000 C 
ATOM     14  C16 UNL     1       3.153   1.676  -1.417  0.00  0.00    +0.000 C 
ATOM     15 CL1  UNL     1       4.693   1.138  -0.894  0.00  0.00    +0.000 Cl
ENDBRANCH  12  13
ENDBRANCH   6   7
BRANCH   1  16
ATOM     16  C4  UNL     1      -1.513   0.948   0.128  0.00  0.00    +0.000 C 
ATOM     17  O1  UNL     1      -1.161   2.128   0.099  0.00  0.00    +0.000 OA
BRANCH  16  19
ATOM     18  C1  UNL     1      -2.010  -0.358  -1.942  0.00  0.00    +0.000 C 
ATOM     19  C2  UNL     1      -2.621   0.412  -0.777  0.00  0.00    +0.000 C 
ATOM     20  C3  UNL     1      -3.511   1.544  -1.283  0.00  0.00    +0.000 C 
ENDBRANCH  16  19
ENDBRANCH   1  16
TORSDOF 4
