REMARK  Name = ligantes_geracao2\Derivado_002.pdb
REMARK  10 active torsions:
REMARK  status: ('A' for Active; 'I' for Inactive)
REMARK    1  A    between atoms: C1_1  and  C2_2
REMARK    2  A    between atoms: C2_2  and  C3_3
REMARK    3  A    between atoms: C6_6  and  C7_7
REMARK    4  A    between atoms: C11_12  and  C12_13
REMARK    5  A    between atoms: N2_14  and  O1_15
REMARK    6  A    between atoms: C13_16  and  C14_17
REMARK    7  A    between atoms: C14_17  and  C15_19
REMARK    8  A    between atoms: C15_19  and  C16_20
REMARK    9  A    between atoms: C16_20  and  C17_21
REMARK   10  A    between atoms: C16_20  and  C18_22
REMARK                            x       y       z     vdW  Elec       q    Type
REMARK                         _______ _______ _______ _____ _____    ______ ____
ROOT
ATOM      1  C3  UNL     1       0.537   2.071  -1.038  0.00  0.00    +0.000 C 
ATOM      2  C4  UNL     1      -0.884   2.565  -1.319  0.00  0.00    +0.000 C 
ATOM      3  C5  UNL     1      -1.813   1.499  -0.735  0.00  0.00    +0.000 C 
ATOM      4  C6  UNL     1      -0.947   0.251  -0.481  0.00  0.00    +0.000 C 
ATOM      5  C13 UNL     1       0.385   0.552  -1.201  0.00  0.00    +0.000 C 
ENDROOT
BRANCH   4   6
ATOM      6  C7  UNL     1      -1.673  -1.032  -0.829  0.00  0.00    +0.000 C 
ATOM      7  C8  UNL     1      -1.632  -1.562  -2.119  0.00  0.00    +0.000 C 
ATOM      8  N1  UNL     1      -2.247  -2.703  -2.510  0.00  0.00    +0.000 NA
ATOM      9  C9  UNL     1      -2.942  -3.378  -1.578  0.00  0.00    +0.000 C 
ATOM     10  C10 UNL     1      -3.072  -2.950  -0.275  0.00  0.00    +0.000 C 
ATOM     11  C11 UNL     1      -2.445  -1.757   0.100  0.00  0.00    +0.000 C 
BRANCH  11  12
ATOM     12  C12 UNL     1      -2.644  -1.293   1.493  0.00  0.00    +0.000 C 
ATOM     13  N2  UNL     1      -3.146  -2.059   2.411  0.00  0.00    +0.000 NA
BRANCH  13  14
ATOM     14  O1  UNL     1      -3.206  -1.347   3.615  0.00  0.00    +0.000 OA
ATOM     15  H   UNL     1      -3.546  -1.757   4.386  0.00  0.00    +0.000 HD
ENDBRANCH  13  14
ENDBRANCH  11  12
ENDBRANCH   4   6
BRANCH   1  17
ATOM     16  C1  UNL     1       1.745   4.171  -1.811  0.00  0.00    +0.000 C 
ATOM     17  C2  UNL     1       1.592   2.666  -1.977  0.00  0.00    +0.000 C 
ENDBRANCH   1  17
BRANCH   5  18
ATOM     18  C14 UNL     1       1.540  -0.269  -0.640  0.00  0.00    +0.000 C 
ATOM     19  O2  UNL     1       2.033  -1.169  -1.325  0.00  0.00    +0.000 OA
BRANCH  18  20
ATOM     20  C15 UNL     1       2.075   0.048   0.749  0.00  0.00    +0.000 C 
BRANCH  20  21
ATOM     21  C16 UNL     1       2.532  -1.206   1.510  0.00  0.00    +0.000 C 
ATOM     22  C17 UNL     1       3.291  -0.802   2.775  0.00  0.00    +0.000 C 
ATOM     23  C18 UNL     1       1.342  -2.094   1.878  0.00  0.00    +0.000 C 
ENDBRANCH  20  21
ENDBRANCH  18  20
ENDBRANCH   5  18
TORSDOF 7
