REMARK  Name = ligantes_geracao2\Derivado_009.pdb
REMARK  8 active torsions:
REMARK  status: ('A' for Active; 'I' for Inactive)
REMARK    1  A    between atoms: C1_1  and  C2_2
REMARK    2  A    between atoms: C2_2  and  C3_3
REMARK    3  A    between atoms: C3_3  and  C4_4
REMARK    4  A    between atoms: C4_4  and  C5_5
REMARK    5  A    between atoms: C5_5  and  C6_7
REMARK    6  A    between atoms: C7_8  and  C8_9
REMARK    7  A    between atoms: C11_12  and  C12_13
REMARK    8  A    between atoms: C16_18  and  C17_19
REMARK                            x       y       z     vdW  Elec       q    Type
REMARK                         _______ _______ _______ _____ _____    ______ ____
ROOT
ATOM      1  C6  UNL     1      -0.163  -0.945   1.026  0.00  0.00    +0.000 C 
ATOM      2  C7  UNL     1      -0.011  -2.480   0.947  0.00  0.00    +0.000 C 
ATOM      3  C8  UNL     1       0.969  -2.982  -0.121  0.00  0.00    +0.000 C 
ATOM      4  C9  UNL     1      -1.439  -2.913   0.614  0.00  0.00    +0.000 C 
ATOM      5  C10 UNL     1      -1.912  -1.902  -0.425  0.00  0.00    +0.000 C 
ATOM      6  C11 UNL     1      -1.113  -0.607  -0.154  0.00  0.00    +0.000 C 
ENDROOT
BRANCH   6   7
ATOM      7  C12 UNL     1      -2.053   0.567   0.068  0.00  0.00    +0.000 C 
ATOM      8  C13 UNL     1      -2.808   0.675   1.235  0.00  0.00    +0.000 C 
ATOM      9  N1  UNL     1      -3.668   1.681   1.506  0.00  0.00    +0.000 NA
ATOM     10  C14 UNL     1      -3.818   2.635   0.569  0.00  0.00    +0.000 C 
ATOM     11  C15 UNL     1      -3.148   2.623  -0.637  0.00  0.00    +0.000 C 
ATOM     12  C16 UNL     1      -2.261   1.573  -0.895  0.00  0.00    +0.000 C 
BRANCH  12  13
ATOM     13  C17 UNL     1      -1.589   1.565  -2.164  0.00  0.00    +0.000 C 
ATOM     14  N2  UNL     1      -1.034   1.558  -3.182  0.00  0.00    +0.000 NA
ENDBRANCH  12  13
ENDBRANCH   6   7
BRANCH   1  15
ATOM     15  C5  UNL     1       1.174  -0.198   1.079  0.00  0.00    +0.000 C 
ATOM     16  O1  UNL     1       2.161  -0.730   1.591  0.00  0.00    +0.000 OA
BRANCH  15  17
ATOM     17  C4  UNL     1       1.205   1.256   0.628  0.00  0.00    +0.000 C 
BRANCH  17  18
ATOM     18  C3  UNL     1       2.589   1.908   0.686  0.00  0.00    +0.000 C 
BRANCH  18  20
ATOM     19  C1  UNL     1       3.769   0.324  -0.953  0.00  0.00    +0.000 C 
ATOM     20  C2  UNL     1       3.404   1.757  -0.604  0.00  0.00    +0.000 C 
ENDBRANCH  18  20
ENDBRANCH  17  18
ENDBRANCH  15  17
ENDBRANCH   1  15
TORSDOF 6
