REMARK  Name = ligantes_geracao2\Derivado_018.pdb
REMARK  7 active torsions:
REMARK  status: ('A' for Active; 'I' for Inactive)
REMARK    1  A    between atoms: C_1  and  C_2
REMARK    2  A    between atoms: C_2  and  C_3
REMARK    3  A    between atoms: C_3  and  C_4
REMARK    4  A    between atoms: C_4  and  C_6
REMARK    5  A    between atoms: C_7  and  C_8
REMARK    6  A    between atoms: C_11  and  C_12
REMARK    7  A    between atoms: C_17  and  C_18
REMARK                            x       y       z     vdW  Elec       q    Type
REMARK                         _______ _______ _______ _____ _____    ______ ____
ROOT
ATOM      1  C   UNL     1       1.359  -0.550   0.714  0.00  0.00    +0.000 C 
ATOM      2  C   UNL     1       1.057  -1.667   1.496  0.00  0.00    +0.000 C 
ATOM      3  N   UNL     1       1.539  -1.900   2.737  0.00  0.00    +0.000 NA
ATOM      4  C   UNL     1       2.373  -0.980   3.250  0.00  0.00    +0.000 C 
ATOM      5  C   UNL     1       2.761   0.156   2.567  0.00  0.00    +0.000 C 
ATOM      6  C   UNL     1       2.257   0.378   1.277  0.00  0.00    +0.000 C 
ENDROOT
BRANCH   1  12
ATOM      7  C   UNL     1      -0.775  -0.555  -0.737  0.00  0.00    +0.000 C 
ATOM      8  C   UNL     1      -1.040  -1.547  -1.888  0.00  0.00    +0.000 C 
ATOM      9  C   UNL     1      -2.337  -2.327  -1.715  0.00  0.00    +0.000 C 
ATOM     10  C   UNL     1       0.187  -2.450  -1.882  0.00  0.00    +0.000 C 
ATOM     11  C   UNL     1       1.329  -1.474  -1.645  0.00  0.00    +0.000 C 
ATOM     12  C   UNL     1       0.770  -0.405  -0.684  0.00  0.00    +0.000 C 
BRANCH   7  13
ATOM     13  C   UNL     1      -1.457   0.796  -0.960  0.00  0.00    +0.000 C 
ATOM     14  O   UNL     1      -2.012   1.081  -2.022  0.00  0.00    +0.000 OA
BRANCH  13  15
ATOM     15  C   UNL     1      -1.435   1.779   0.198  0.00  0.00    +0.000 C 
BRANCH  15  17
ATOM     16  C   UNL     1      -3.786   1.324   1.033  0.00  0.00    +0.000 C 
ATOM     17  C   UNL     1      -2.816   2.363   0.485  0.00  0.00    +0.000 C 
ENDBRANCH  15  17
ENDBRANCH  13  15
ENDBRANCH   7  13
ENDBRANCH   1  12
BRANCH   6  18
ATOM     18  C   UNL     1       2.686   1.578   0.574  0.00  0.00    +0.000 C 
ATOM     19  N   UNL     1       1.943   2.570   0.128  0.00  0.00    +0.000 NA
ATOM     20  N   UNL     1       2.803   3.466  -0.460  0.00  0.00    +0.000 NA
ATOM     21  N   UNL     1       4.056   3.041  -0.383  0.00  0.00    +0.000 NA
ATOM     22  N   UNL     1       3.986   1.868   0.259  0.00  0.00    +0.000 N 
ATOM     23  H   UNL     1       4.758   1.296   0.474  0.00  0.00    +0.000 HD
ENDBRANCH   6  18
TORSDOF 5
