REMARK  Name = ligantes_geracao2\Derivado_017.pdb
REMARK  7 active torsions:
REMARK  status: ('A' for Active; 'I' for Inactive)
REMARK    1  A    between atoms: C1_1  and  C2_2
REMARK    2  A    between atoms: C2_2  and  C3_3
REMARK    3  A    between atoms: C3_3  and  C4_4
REMARK    4  A    between atoms: C4_4  and  C5_6
REMARK    5  A    between atoms: C6_7  and  C7_8
REMARK    6  A    between atoms: C10_11  and  C11_12
REMARK    7  A    between atoms: C15_17  and  C16_18
REMARK                            x       y       z     vdW  Elec       q    Type
REMARK                         _______ _______ _______ _____ _____    ______ ____
ROOT
ATOM      1  C5  UNL     1       0.369   1.010  -0.355  0.00  0.00    +0.000 C 
ATOM      2  C6  UNL     1       1.035   2.399  -0.193  0.00  0.00    +0.000 C 
ATOM      3  C7  UNL     1       2.025   2.709  -1.309  0.00  0.00    +0.000 C 
ATOM      4  C8  UNL     1      -0.116   3.408  -0.150  0.00  0.00    +0.000 C 
ATOM      5  C9  UNL     1      -1.296   2.598   0.367  0.00  0.00    +0.000 C 
ATOM      6  C10 UNL     1      -1.157   1.273  -0.401  0.00  0.00    +0.000 C 
ENDROOT
BRANCH   6   7
ATOM      7  C11 UNL     1      -2.080   0.133  -0.019  0.00  0.00    +0.000 C 
ATOM      8  C12 UNL     1      -2.948   0.233   1.068  0.00  0.00    +0.000 C 
ATOM      9  N1  UNL     1      -3.824  -0.724   1.460  0.00  0.00    +0.000 NA
ATOM     10  C13 UNL     1      -3.854  -1.860   0.744  0.00  0.00    +0.000 C 
ATOM     11  C14 UNL     1      -3.042  -2.087  -0.346  0.00  0.00    +0.000 C 
ATOM     12  C15 UNL     1      -2.143  -1.083  -0.728  0.00  0.00    +0.000 C 
BRANCH  12  13
ATOM     13  C16 UNL     1      -1.295  -1.348  -1.919  0.00  0.00    +0.000 C 
ATOM     14  N2  UNL     1      -0.716  -2.585  -1.984  0.00  0.00    +0.000 N 
ATOM     15  O2  UNL     1      -1.094  -0.511  -2.786  0.00  0.00    +0.000 OA
ATOM     16  H   UNL     1      -0.889  -3.247  -1.276  0.00  0.00    +0.000 HD
ATOM     17  H   UNL     1      -0.126  -2.813  -2.738  0.00  0.00    +0.000 HD
ENDBRANCH  12  13
ENDBRANCH   6   7
BRANCH   1  18
ATOM     18  C4  UNL     1       0.806   0.117   0.805  0.00  0.00    +0.000 C 
ATOM     19  O1  UNL     1       0.320   0.231   1.930  0.00  0.00    +0.000 OA
BRANCH  18  20
ATOM     20  C3  UNL     1       1.923  -0.869   0.503  0.00  0.00    +0.000 C 
BRANCH  20  22
ATOM     21  C1  UNL     1       3.318  -2.788   1.344  0.00  0.00    +0.000 C 
ATOM     22  C2  UNL     1       2.219  -1.794   1.680  0.00  0.00    +0.000 C 
ENDBRANCH  20  22
ENDBRANCH  18  20
ENDBRANCH   1  18
TORSDOF 5
