REMARK  Name = ligantes_geracao2\Derivado_024.pdb
REMARK  6 active torsions:
REMARK  status: ('A' for Active; 'I' for Inactive)
REMARK    1  A    between atoms: C1_1  and  C2_2
REMARK    2  A    between atoms: C2_2  and  C3_3
REMARK    3  A    between atoms: C2_2  and  C4_4
REMARK    4  A    between atoms: C4_4  and  C5_6
REMARK    5  A    between atoms: C9_11  and  C10_12
REMARK    6  A    between atoms: C14_17  and  C15_18
REMARK                            x       y       z     vdW  Elec       q    Type
REMARK                         _______ _______ _______ _____ _____    ______ ____
ROOT
ATOM      1  C5  UNL     1       0.595  -0.671  -0.366  0.00  0.00    +0.000 C 
ATOM      2  C6  UNL     1       0.979  -2.019   0.239  0.00  0.00    +0.000 C 
ATOM      3 CL1  UNL     1       1.429  -3.216  -0.990  0.00  0.00    +0.000 Cl
ATOM      4  C7  UNL     1      -0.273  -2.441   0.994  0.00  0.00    +0.000 C 
ATOM      5  C8  UNL     1      -0.757  -1.147   1.641  0.00  0.00    +0.000 C 
ATOM      6  C9  UNL     1      -0.279  -0.004   0.719  0.00  0.00    +0.000 C 
ENDROOT
BRANCH   6   7
ATOM      7  C10 UNL     1      -1.378   0.896   0.186  0.00  0.00    +0.000 C 
ATOM      8  C11 UNL     1      -1.273   2.269   0.445  0.00  0.00    +0.000 C 
ATOM      9  N1  UNL     1      -2.165   3.209   0.065  0.00  0.00    +0.000 NA
ATOM     10  C12 UNL     1      -3.235   2.777  -0.624  0.00  0.00    +0.000 C 
ATOM     11  C13 UNL     1      -3.446   1.450  -0.948  0.00  0.00    +0.000 C 
ATOM     12  C14 UNL     1      -2.510   0.487  -0.542  0.00  0.00    +0.000 C 
BRANCH  12  13
ATOM     13  C15 UNL     1      -2.776  -0.901  -0.932  0.00  0.00    +0.000 C 
ATOM     14  C16 UNL     1      -3.789  -1.614  -0.434  0.00  0.00    +0.000 C 
ATOM     15  F1  UNL     1      -4.634  -1.129   0.494  0.00  0.00    +0.000 F 
ENDBRANCH  12  13
ENDBRANCH   6   7
BRANCH   1  16
ATOM     16  C4  UNL     1       1.791   0.185  -0.766  0.00  0.00    +0.000 C 
ATOM     17  O1  UNL     1       1.854   0.650  -1.907  0.00  0.00    +0.000 OA
BRANCH  16  19
ATOM     18  C1  UNL     1       3.106   1.982   0.364  0.00  0.00    +0.000 C 
ATOM     19  C2  UNL     1       2.890   0.476   0.254  0.00  0.00    +0.000 C 
ATOM     20  C3  UNL     1       4.174  -0.233  -0.162  0.00  0.00    +0.000 C 
ENDBRANCH  16  19
ENDBRANCH   1  16
TORSDOF 4
