REMARK  Name = ligantes_geracao2\Derivado_004.pdb
REMARK  10 active torsions:
REMARK  status: ('A' for Active; 'I' for Inactive)
REMARK    1  A    between atoms: C1_1  and  C2_2
REMARK    2  A    between atoms: C5_6  and  C6_7
REMARK    3  A    between atoms: N2_8  and  O1_9
REMARK    4  A    between atoms: C7_10  and  C8_11
REMARK    5  A    between atoms: C11_14  and  C12_15
REMARK    6  A    between atoms: C13_16  and  C14_17
REMARK    7  A    between atoms: C14_17  and  C15_19
REMARK    8  A    between atoms: C15_19  and  C16_20
REMARK    9  A    between atoms: C16_20  and  C17_21
REMARK   10  A    between atoms: C16_20  and  C18_22
REMARK                            x       y       z     vdW  Elec       q    Type
REMARK                         _______ _______ _______ _____ _____    ______ ____
ROOT
ATOM      1  C8  UNL     1      -1.023  -0.696  -0.632  0.00  0.00    +0.000 C 
ATOM      2  C9  UNL     1      -1.368  -1.358  -1.978  0.00  0.00    +0.000 C 
ATOM      3  C10 UNL     1      -0.108  -1.197  -2.819  0.00  0.00    +0.000 C 
ATOM      4  C11 UNL     1       0.401   0.190  -2.432  0.00  0.00    +0.000 C 
ATOM      5  C12 UNL     1       1.818   0.468  -2.913  0.00  0.00    +0.000 C 
ATOM      6  C13 UNL     1       0.163   0.271  -0.910  0.00  0.00    +0.000 C 
ENDROOT
BRANCH   1  13
ATOM      7  C1  UNL     1      -2.576   1.871  -1.492  0.00  0.00    +0.000 C 
ATOM      8  C2  UNL     1      -2.895   1.058  -0.271  0.00  0.00    +0.000 C 
ATOM      9  N1  UNL     1      -3.910   1.599   0.457  0.00  0.00    +0.000 NA
ATOM     10  C3  UNL     1      -4.328   0.966   1.565  0.00  0.00    +0.000 C 
ATOM     11  C4  UNL     1      -3.790  -0.221   1.994  0.00  0.00    +0.000 C 
ATOM     12  C5  UNL     1      -2.748  -0.781   1.251  0.00  0.00    +0.000 C 
ATOM     13  C7  UNL     1      -2.230  -0.127   0.104  0.00  0.00    +0.000 C 
BRANCH  12  14
ATOM     14  C6  UNL     1      -2.264  -2.106   1.713  0.00  0.00    +0.000 C 
ATOM     15  N2  UNL     1      -2.431  -2.509   2.935  0.00  0.00    +0.000 NA
BRANCH  15  16
ATOM     16  O1  UNL     1      -1.888  -3.792   3.066  0.00  0.00    +0.000 OA
ATOM     17  H   UNL     1      -1.924  -4.234   3.891  0.00  0.00    +0.000 HD
ENDBRANCH  15  16
ENDBRANCH  12  14
ENDBRANCH   1  13
BRANCH   6  18
ATOM     18  C14 UNL     1       1.382  -0.161  -0.088  0.00  0.00    +0.000 C 
ATOM     19  O2  UNL     1       1.870  -1.285  -0.206  0.00  0.00    +0.000 OA
BRANCH  18  20
ATOM     20  C15 UNL     1       1.916   0.860   0.907  0.00  0.00    +0.000 C 
BRANCH  20  21
ATOM     21  C16 UNL     1       3.267   0.475   1.527  0.00  0.00    +0.000 C 
ATOM     22  C17 UNL     1       4.405   0.606   0.512  0.00  0.00    +0.000 C 
ATOM     23  C18 UNL     1       3.556   1.358   2.743  0.00  0.00    +0.000 C 
ENDBRANCH  20  21
ENDBRANCH  18  20
ENDBRANCH   6  18
TORSDOF 6
