REMARK  Name = ligantes_geracao2\Derivado_019.pdb
REMARK  7 active torsions:
REMARK  status: ('A' for Active; 'I' for Inactive)
REMARK    1  A    between atoms: C1_1  and  C2_2
REMARK    2  A    between atoms: C2_2  and  C3_3
REMARK    3  A    between atoms: C3_3  and  C4_4
REMARK    4  A    between atoms: C3_3  and  C5_5
REMARK    5  A    between atoms: C5_5  and  C6_7
REMARK    6  A    between atoms: C10_12  and  C11_13
REMARK    7  A    between atoms: C15_18  and  C16_19
REMARK                            x       y       z     vdW  Elec       q    Type
REMARK                         _______ _______ _______ _____ _____    ______ ____
ROOT
ATOM      1  C6  UNL     1       0.368   0.303  -0.622  0.00  0.00    +0.000 C 
ATOM      2  C7  UNL     1       0.598   1.295  -1.748  0.00  0.00    +0.000 C 
ATOM      3  F1  UNL     1       1.082   2.459  -1.249  0.00  0.00    +0.000 F 
ATOM      4  C8  UNL     1      -0.787   1.516  -2.324  0.00  0.00    +0.000 C 
ATOM      5  C9  UNL     1      -1.419   0.130  -2.309  0.00  0.00    +0.000 C 
ATOM      6  C10 UNL     1      -0.723  -0.640  -1.168  0.00  0.00    +0.000 C 
ENDROOT
BRANCH   6   7
ATOM      7  C11 UNL     1      -1.618  -1.200  -0.078  0.00  0.00    +0.000 C 
ATOM      8  C12 UNL     1      -1.452  -2.550   0.258  0.00  0.00    +0.000 C 
ATOM      9  N1  UNL     1      -2.147  -3.205   1.213  0.00  0.00    +0.000 NA
ATOM     10  C13 UNL     1      -3.066  -2.494   1.887  0.00  0.00    +0.000 C 
ATOM     11  C14 UNL     1      -3.316  -1.155   1.649  0.00  0.00    +0.000 C 
ATOM     12  C15 UNL     1      -2.586  -0.489   0.654  0.00  0.00    +0.000 C 
BRANCH  12  13
ATOM     13  C16 UNL     1      -2.863   0.937   0.460  0.00  0.00    +0.000 C 
ATOM     14  C17 UNL     1      -4.046   1.382   0.033  0.00  0.00    +0.000 C 
ATOM     15  F2  UNL     1      -4.275   2.697  -0.134  0.00  0.00    +0.000 F 
ENDBRANCH  12  13
ENDBRANCH   6   7
BRANCH   1  16
ATOM     16  C5  UNL     1       1.652  -0.450  -0.321  0.00  0.00    +0.000 C 
ATOM     17  O1  UNL     1       2.183  -1.157  -1.179  0.00  0.00    +0.000 OA
BRANCH  16  18
ATOM     18  C3  UNL     1       2.242  -0.295   1.081  0.00  0.00    +0.000 C 
ATOM     19  C4  UNL     1       3.228  -1.420   1.393  0.00  0.00    +0.000 C 
BRANCH  18  21
ATOM     20  C1  UNL     1       4.046   1.410   0.391  0.00  0.00    +0.000 C 
ATOM     21  C2  UNL     1       2.851   1.100   1.284  0.00  0.00    +0.000 C 
ENDBRANCH  18  21
ENDBRANCH  16  18
ENDBRANCH   1  16
TORSDOF 5
