REMARK  Name = ligantes_geracao2\Derivado_013.pdb
REMARK  8 active torsions:
REMARK  status: ('A' for Active; 'I' for Inactive)
REMARK    1  A    between atoms: C1_1  and  C2_2
REMARK    2  A    between atoms: C2_2  and  C3_3
REMARK    3  A    between atoms: C3_3  and  C4_4
REMARK    4  A    between atoms: C4_4  and  C5_6
REMARK    5  A    between atoms: C6_7  and  C7_8
REMARK    6  A    between atoms: C10_11  and  C11_12
REMARK    7  A    between atoms: C12_13  and  C13_14
REMARK    8  A    between atoms: C16_19  and  C17_20
REMARK                            x       y       z     vdW  Elec       q    Type
REMARK                         _______ _______ _______ _____ _____    ______ ____
ROOT
ATOM      1  C5  UNL     1       0.351   0.833  -0.746  0.00  0.00    +0.000 C 
ATOM      2  C6  UNL     1       0.483   2.364  -0.827  0.00  0.00    +0.000 C 
ATOM      3  C7  UNL     1       1.795   2.949  -0.324  0.00  0.00    +0.000 C 
ATOM      4  C8  UNL     1      -0.758   2.925  -0.118  0.00  0.00    +0.000 C 
ATOM      5  C9  UNL     1      -1.732   1.750   0.045  0.00  0.00    +0.000 C 
ATOM      6  C10 UNL     1      -1.177   0.637  -0.858  0.00  0.00    +0.000 C 
ENDROOT
BRANCH   6   7
ATOM      7  C11 UNL     1      -1.660  -0.808  -0.799  0.00  0.00    +0.000 C 
ATOM      8  C12 UNL     1      -1.486  -1.624  -1.953  0.00  0.00    +0.000 C 
ATOM      9  C14 UNL     1      -1.893  -2.960  -1.973  0.00  0.00    +0.000 C 
ATOM     10  C15 UNL     1      -2.470  -3.472  -0.840  0.00  0.00    +0.000 C 
ATOM     11  N2  UNL     1      -2.655  -2.745   0.272  0.00  0.00    +0.000 NA
ATOM     12  C16 UNL     1      -2.263  -1.440   0.300  0.00  0.00    +0.000 C 
ATOM     13  C17 UNL     1      -2.554  -0.790   1.618  0.00  0.00    +0.000 C 
BRANCH   8  14
ATOM     14  C13 UNL     1      -0.881  -1.126  -3.159  0.00  0.00    +0.000 C 
ATOM     15  N1  UNL     1      -0.375  -0.722  -4.122  0.00  0.00    +0.000 NA
ENDBRANCH   8  14
ENDBRANCH   6   7
BRANCH   1  16
ATOM     16  C4  UNL     1       0.931   0.223   0.533  0.00  0.00    +0.000 C 
ATOM     17  O1  UNL     1       0.673   0.683   1.645  0.00  0.00    +0.000 OA
BRANCH  16  18
ATOM     18  C3  UNL     1       1.811  -1.006   0.350  0.00  0.00    +0.000 C 
BRANCH  18  20
ATOM     19  C1  UNL     1       3.641  -0.547   2.044  0.00  0.00    +0.000 C 
ATOM     20  C2  UNL     1       2.500  -1.467   1.631  0.00  0.00    +0.000 C 
ENDBRANCH  18  20
ENDBRANCH  16  18
ENDBRANCH   1  16
TORSDOF 5
