REMARK  Name = ligantes_geracao2\Derivado_015.pdb
REMARK  8 active torsions:
REMARK  status: ('A' for Active; 'I' for Inactive)
REMARK    1  A    between atoms: C1_1  and  C2_2
REMARK    2  A    between atoms: C2_2  and  C3_3
REMARK    3  A    between atoms: C3_3  and  C4_4
REMARK    4  A    between atoms: C4_4  and  C5_6
REMARK    5  A    between atoms: C6_7  and  C7_8
REMARK    6  A    between atoms: C10_11  and  C11_12
REMARK    7  A    between atoms: C14_16  and  C15_17
REMARK    8  A    between atoms: C16_18  and  C17_19
REMARK                            x       y       z     vdW  Elec       q    Type
REMARK                         _______ _______ _______ _____ _____    ______ ____
ROOT
ATOM      1  C5  UNL     1      -0.379  -1.278  -0.888  0.00  0.00    +0.000 C 
ATOM      2  C6  UNL     1      -1.092  -2.121   0.193  0.00  0.00    +0.000 C 
ATOM      3  C7  UNL     1      -2.393  -2.769  -0.271  0.00  0.00    +0.000 C 
ATOM      4  C8  UNL     1      -0.065  -3.195   0.556  0.00  0.00    +0.000 C 
ATOM      5  C9  UNL     1       1.243  -2.432   0.597  0.00  0.00    +0.000 C 
ATOM      6  C10 UNL     1       1.149  -1.443  -0.581  0.00  0.00    +0.000 C 
ENDROOT
BRANCH   6   7
ATOM      7  C11 UNL     1       2.069  -0.252  -0.384  0.00  0.00    +0.000 C 
ATOM      8  C12 UNL     1       3.170  -0.131  -1.235  0.00  0.00    +0.000 C 
ATOM      9  N1  UNL     1       4.098   0.847  -1.169  0.00  0.00    +0.000 NA
ATOM     10  C13 UNL     1       3.927   1.787  -0.222  0.00  0.00    +0.000 C 
ATOM     11  C14 UNL     1       2.877   1.794   0.685  0.00  0.00    +0.000 C 
ATOM     12  C15 UNL     1       2.778   2.895   1.702  0.00  0.00    +0.000 C 
ATOM     13  C16 UNL     1       1.937   0.748   0.601  0.00  0.00    +0.000 C 
BRANCH  13  14
ATOM     14  C17 UNL     1       0.844   0.729   1.533  0.00  0.00    +0.000 C 
ATOM     15  N2  UNL     1      -0.045   0.709   2.279  0.00  0.00    +0.000 NA
ENDBRANCH  13  14
ENDBRANCH   6   7
BRANCH   1  16
ATOM     16  C4  UNL     1      -0.855   0.161  -1.118  0.00  0.00    +0.000 C 
ATOM     17  O1  UNL     1      -0.173   0.928  -1.804  0.00  0.00    +0.000 OA
BRANCH  16  18
ATOM     18  C3  UNL     1      -2.221   0.592  -0.610  0.00  0.00    +0.000 C 
BRANCH  18  20
ATOM     19  C1  UNL     1      -3.768   2.524  -0.138  0.00  0.00    +0.000 C 
ATOM     20  C2  UNL     1      -2.417   2.106  -0.695  0.00  0.00    +0.000 C 
ENDBRANCH  18  20
ENDBRANCH  16  18
ENDBRANCH   1  16
TORSDOF 5
