REMARK  Name = ligantes_geracao2\Derivado_012.pdb
REMARK  8 active torsions:
REMARK  status: ('A' for Active; 'I' for Inactive)
REMARK    1  A    between atoms: C1_1  and  C2_2
REMARK    2  A    between atoms: C2_2  and  C3_3
REMARK    3  A    between atoms: C3_3  and  C4_4
REMARK    4  A    between atoms: C3_3  and  C5_5
REMARK    5  A    between atoms: C5_5  and  C6_7
REMARK    6  A    between atoms: C7_8  and  C8_9
REMARK    7  A    between atoms: C11_12  and  C12_13
REMARK    8  A    between atoms: C16_18  and  C17_19
REMARK                            x       y       z     vdW  Elec       q    Type
REMARK                         _______ _______ _______ _____ _____    ______ ____
ROOT
ATOM      1  C6  UNL     1      -0.104  -0.544  -0.364  0.00  0.00    +0.000 C 
ATOM      2  C7  UNL     1       0.242  -2.012  -0.086  0.00  0.00    +0.000 C 
ATOM      3  C8  UNL     1       0.946  -2.697  -1.251  0.00  0.00    +0.000 C 
ATOM      4  C9  UNL     1      -1.125  -2.630   0.199  0.00  0.00    +0.000 C 
ATOM      5  C10 UNL     1      -1.806  -1.591   1.080  0.00  0.00    +0.000 C 
ATOM      6  C11 UNL     1      -1.269  -0.223   0.608  0.00  0.00    +0.000 C 
ENDROOT
BRANCH   6   7
ATOM      7  C12 UNL     1      -2.322   0.670  -0.026  0.00  0.00    +0.000 C 
ATOM      8  C13 UNL     1      -3.160   0.190  -1.031  0.00  0.00    +0.000 C 
ATOM      9  N1  UNL     1      -4.105   0.921  -1.662  0.00  0.00    +0.000 NA
ATOM     10  C14 UNL     1      -4.229   2.210  -1.297  0.00  0.00    +0.000 C 
ATOM     11  C15 UNL     1      -3.452   2.801  -0.320  0.00  0.00    +0.000 C 
ATOM     12  C16 UNL     1      -2.487   2.023   0.325  0.00  0.00    +0.000 C 
BRANCH  12  13
ATOM     13  C17 UNL     1      -1.699   2.646   1.352  0.00  0.00    +0.000 C 
ATOM     14  N2  UNL     1      -1.088   3.134   2.210  0.00  0.00    +0.000 NA
ENDBRANCH  12  13
ENDBRANCH   6   7
BRANCH   1  15
ATOM     15  C5  UNL     1       1.008   0.498  -0.231  0.00  0.00    +0.000 C 
ATOM     16  O1  UNL     1       0.822   1.618  -0.720  0.00  0.00    +0.000 OA
BRANCH  15  17
ATOM     17  C3  UNL     1       2.280   0.187   0.560  0.00  0.00    +0.000 C 
ATOM     18  C4  UNL     1       2.011   0.393   2.049  0.00  0.00    +0.000 C 
BRANCH  17  20
ATOM     19  C1  UNL     1       3.926   0.750  -1.303  0.00  0.00    +0.000 C 
ATOM     20  C2  UNL     1       3.457   1.074   0.111  0.00  0.00    +0.000 C 
ENDBRANCH  17  20
ENDBRANCH  15  17
ENDBRANCH   1  15
TORSDOF 5
