REMARK  Name = ligantes_geracao2\Derivado_010.pdb
REMARK  8 active torsions:
REMARK  status: ('A' for Active; 'I' for Inactive)
REMARK    1  A    between atoms: C1_1  and  C2_2
REMARK    2  A    between atoms: C2_2  and  C3_3
REMARK    3  A    between atoms: C3_3  and  C4_4
REMARK    4  A    between atoms: C4_4  and  C5_6
REMARK    5  A    between atoms: C6_7  and  C7_8
REMARK    6  A    between atoms: C7_8  and  C8_9
REMARK    7  A    between atoms: C11_12  and  C12_13
REMARK    8  A    between atoms: C16_18  and  C17_19
REMARK                            x       y       z     vdW  Elec       q    Type
REMARK                         _______ _______ _______ _____ _____    ______ ____
ROOT
ATOM      1  C5  UNL     1       0.026   0.944   0.230  0.00  0.00    +0.000 C 
ATOM      2  C6  UNL     1      -0.276   2.062   1.264  0.00  0.00    +0.000 C 
ATOM      3  C9  UNL     1       0.871   1.998   2.286  0.00  0.00    +0.000 C 
ATOM      4  C10 UNL     1       1.394   0.572   2.186  0.00  0.00    +0.000 C 
ATOM      5  C11 UNL     1       1.372   0.322   0.673  0.00  0.00    +0.000 C 
ENDROOT
BRANCH   5   6
ATOM      6  C12 UNL     1       1.667  -1.078   0.176  0.00  0.00    +0.000 C 
ATOM      7  C13 UNL     1       1.551  -2.195   0.999  0.00  0.00    +0.000 C 
ATOM      8  N1  UNL     1       1.813  -3.465   0.610  0.00  0.00    +0.000 NA
ATOM      9  C14 UNL     1       2.200  -3.659  -0.663  0.00  0.00    +0.000 C 
ATOM     10  C15 UNL     1       2.338  -2.634  -1.575  0.00  0.00    +0.000 C 
ATOM     11  C16 UNL     1       2.069  -1.329  -1.151  0.00  0.00    +0.000 C 
BRANCH  11  12
ATOM     12  C17 UNL     1       2.206  -0.270  -2.109  0.00  0.00    +0.000 C 
ATOM     13  N2  UNL     1       2.288   0.595  -2.878  0.00  0.00    +0.000 NA
ENDBRANCH  11  12
ENDBRANCH   5   6
BRANCH   1  14
ATOM     14  C4  UNL     1      -1.112  -0.079   0.225  0.00  0.00    +0.000 C 
ATOM     15  O1  UNL     1      -1.442  -0.673   1.251  0.00  0.00    +0.000 OA
BRANCH  14  16
ATOM     16  C3  UNL     1      -1.825  -0.290  -1.102  0.00  0.00    +0.000 C 
BRANCH  16  18
ATOM     17  C1  UNL     1      -1.925  -2.824  -1.162  0.00  0.00    +0.000 C 
ATOM     18  C2  UNL     1      -2.720  -1.526  -1.130  0.00  0.00    +0.000 C 
ENDBRANCH  16  18
ENDBRANCH  14  16
ENDBRANCH   1  14
BRANCH   2  19
ATOM     19  C7  UNL     1      -0.395   3.462   0.649  0.00  0.00    +0.000 C 
ATOM     20  C8  UNL     1      -1.613   3.615  -0.251  0.00  0.00    +0.000 C 
ENDBRANCH   2  19
TORSDOF 6
