REMARK  Name = ligantes_geracao2\Derivado_011.pdb
REMARK  8 active torsions:
REMARK  status: ('A' for Active; 'I' for Inactive)
REMARK    1  A    between atoms: C1_1  and  C2_2
REMARK    2  A    between atoms: C2_2  and  C3_3
REMARK    3  A    between atoms: C2_2  and  C4_4
REMARK    4  A    between atoms: C4_4  and  C5_5
REMARK    5  A    between atoms: C5_5  and  C6_7
REMARK    6  A    between atoms: C7_8  and  C8_9
REMARK    7  A    between atoms: C11_12  and  C12_13
REMARK    8  A    between atoms: C16_18  and  C17_19
REMARK                            x       y       z     vdW  Elec       q    Type
REMARK                         _______ _______ _______ _____ _____    ______ ____
ROOT
ATOM      1  C6  UNL     1      -0.310   0.680  -0.316  0.00  0.00    +0.000 C 
ATOM      2  C7  UNL     1      -0.249   2.204  -0.468  0.00  0.00    +0.000 C 
ATOM      3  C8  UNL     1       0.324   2.916   0.749  0.00  0.00    +0.000 C 
ATOM      4  C9  UNL     1      -1.706   2.578  -0.727  0.00  0.00    +0.000 C 
ATOM      5  C10 UNL     1      -2.245   1.465  -1.622  0.00  0.00    +0.000 C 
ATOM      6  C11 UNL     1      -1.319   0.252  -1.404  0.00  0.00    +0.000 C 
ENDROOT
BRANCH   6   7
ATOM      7  C12 UNL     1      -2.014  -1.065  -1.123  0.00  0.00    +0.000 C 
ATOM      8  C13 UNL     1      -1.723  -2.150  -1.952  0.00  0.00    +0.000 C 
ATOM      9  N1  UNL     1      -2.257  -3.385  -1.823  0.00  0.00    +0.000 NA
ATOM     10  C14 UNL     1      -3.133  -3.575  -0.821  0.00  0.00    +0.000 C 
ATOM     11  C15 UNL     1      -3.493  -2.582   0.067  0.00  0.00    +0.000 C 
ATOM     12  C16 UNL     1      -2.925  -1.312  -0.081  0.00  0.00    +0.000 C 
BRANCH  12  13
ATOM     13  C17 UNL     1      -3.300  -0.310   0.875  0.00  0.00    +0.000 C 
ATOM     14  N2  UNL     1      -3.591   0.488   1.665  0.00  0.00    +0.000 NA
ENDBRANCH  12  13
ENDBRANCH   6   7
BRANCH   1  15
ATOM     15  C5  UNL     1       1.057   0.042  -0.532  0.00  0.00    +0.000 C 
ATOM     16  O1  UNL     1       1.566  -0.020  -1.651  0.00  0.00    +0.000 OA
BRANCH  15  17
ATOM     17  C4  UNL     1       1.732  -0.535   0.704  0.00  0.00    +0.000 C 
BRANCH  17  19
ATOM     18  C1  UNL     1       3.757  -1.666   1.668  0.00  0.00    +0.000 C 
ATOM     19  C2  UNL     1       3.233  -0.804   0.517  0.00  0.00    +0.000 C 
ATOM     20  C3  UNL     1       4.027   0.502   0.446  0.00  0.00    +0.000 C 
ENDBRANCH  17  19
ENDBRANCH  15  17
ENDBRANCH   1  15
TORSDOF 5
