REMARK  Name = ligantes_geracao2\Derivado_006.pdb
REMARK  10 active torsions:
REMARK  status: ('A' for Active; 'I' for Inactive)
REMARK    1  A    between atoms: C1_1  and  C2_2
REMARK    2  A    between atoms: C5_6  and  C6_7
REMARK    3  A    between atoms: C9_10  and  C10_11
REMARK    4  A    between atoms: C11_12  and  C12_13
REMARK    5  A    between atoms: C12_13  and  C13_15
REMARK    6  A    between atoms: C13_15  and  C14_16
REMARK    7  A    between atoms: C14_16  and  C15_17
REMARK    8  A    between atoms: C14_16  and  C16_18
REMARK    9  A    between atoms: C17_19  and  C18_20
REMARK   10  A    between atoms: N2_21  and  O2_22
REMARK                            x       y       z     vdW  Elec       q    Type
REMARK                         _______ _______ _______ _____ _____    ______ ____
ROOT
ATOM      1  C6  UNL     1      -0.748  -1.556  -0.433  0.00  0.00    +0.000 C 
ATOM      2  C7  UNL     1      -0.474  -3.050  -0.197  0.00  0.00    +0.000 C 
ATOM      3  C8  UNL     1       0.133  -3.483  -1.525  0.00  0.00    +0.000 C 
ATOM      4  C9  UNL     1       1.052  -2.320  -1.928  0.00  0.00    +0.000 C 
ATOM      5  C10 UNL     1       1.069  -2.109  -3.437  0.00  0.00    +0.000 C 
ATOM      6  C11 UNL     1       0.527  -1.078  -1.164  0.00  0.00    +0.000 C 
ENDROOT
BRANCH   1  12
ATOM      7  C1  UNL     1      -3.271   2.387   1.721  0.00  0.00    +0.000 C 
ATOM      8  C2  UNL     1      -2.420   1.152   1.757  0.00  0.00    +0.000 C 
ATOM      9  C3  UNL     1      -1.984   0.684   2.989  0.00  0.00    +0.000 C 
ATOM     10  N1  UNL     1      -1.197  -0.394   3.156  0.00  0.00    +0.000 NA
ATOM     11  C4  UNL     1      -0.824  -1.062   2.045  0.00  0.00    +0.000 C 
ATOM     12  C5  UNL     1      -1.203  -0.723   0.747  0.00  0.00    +0.000 C 
ATOM     13  C17 UNL     1      -2.027   0.421   0.618  0.00  0.00    +0.000 C 
BRANCH  13  14
ATOM     14  C18 UNL     1      -2.458   0.849  -0.737  0.00  0.00    +0.000 C 
ATOM     15  N2  UNL     1      -3.571   1.470  -0.968  0.00  0.00    +0.000 NA
BRANCH  15  16
ATOM     16  O2  UNL     1      -3.677   1.716  -2.342  0.00  0.00    +0.000 OA
ATOM     17  H   UNL     1      -4.429   2.161  -2.682  0.00  0.00    +0.000 HD
ENDBRANCH  15  16
ENDBRANCH  13  14
ENDBRANCH   1  12
BRANCH   6  18
ATOM     18  C12 UNL     1       1.599  -0.557  -0.203  0.00  0.00    +0.000 C 
ATOM     19  O1  UNL     1       2.175  -1.309   0.582  0.00  0.00    +0.000 OA
BRANCH  18  20
ATOM     20  C13 UNL     1       1.910   0.932  -0.293  0.00  0.00    +0.000 C 
BRANCH  20  21
ATOM     21  C14 UNL     1       2.839   1.447   0.816  0.00  0.00    +0.000 C 
ATOM     22  C15 UNL     1       3.366   2.836   0.451  0.00  0.00    +0.000 C 
ATOM     23  C16 UNL     1       2.123   1.508   2.167  0.00  0.00    +0.000 C 
ENDBRANCH  20  21
ENDBRANCH  18  20
ENDBRANCH   6  18
TORSDOF 6
