REMARK  Name = ligantes_geracao2\Derivado_021.pdb
REMARK  7 active torsions:
REMARK  status: ('A' for Active; 'I' for Inactive)
REMARK    1  A    between atoms: C1_1  and  C2_2
REMARK    2  A    between atoms: C4_4  and  C5_5
REMARK    3  A    between atoms: C7_8  and  C8_9
REMARK    4  A    between atoms: C12_14  and  C13_15
REMARK    5  A    between atoms: C13_15  and  C14_17
REMARK    6  A    between atoms: C14_17  and  C15_18
REMARK    7  A    between atoms: C14_17  and  C16_19
REMARK                            x       y       z     vdW  Elec       q    Type
REMARK                         _______ _______ _______ _____ _____    ______ ____
ROOT
ATOM      1  C8  UNL     1       0.198  -0.416   1.367  0.00  0.00    +0.000 C 
ATOM      2  C9  UNL     1       0.011  -1.772   2.075  0.00  0.00    +0.000 C 
ATOM      3  C10 UNL     1       1.244  -2.574   1.686  0.00  0.00    +0.000 C 
ATOM      4  C11 UNL     1       1.462  -2.166   0.242  0.00  0.00    +0.000 C 
ATOM      5  F2  UNL     1       2.702  -2.482  -0.183  0.00  0.00    +0.000 F 
ATOM      6  C12 UNL     1       1.194  -0.666   0.205  0.00  0.00    +0.000 C 
ENDROOT
BRANCH   1  11
ATOM      7  C1  UNL     1      -4.543   2.657   0.123  0.00  0.00    +0.000 C 
ATOM      8  C2  UNL     1      -3.340   1.810   0.411  0.00  0.00    +0.000 C 
ATOM      9  C3  UNL     1      -3.150   0.611  -0.262  0.00  0.00    +0.000 C 
ATOM     10  C4  UNL     1      -2.018  -0.171   0.015  0.00  0.00    +0.000 C 
ATOM     11  C7  UNL     1      -1.089   0.279   0.969  0.00  0.00    +0.000 C 
ATOM     12  C17 UNL     1      -1.384   1.498   1.588  0.00  0.00    +0.000 C 
ATOM     13  N1  UNL     1      -2.471   2.261   1.336  0.00  0.00    +0.000 NA
BRANCH  10  14
ATOM     14  C5  UNL     1      -1.891  -1.432  -0.723  0.00  0.00    +0.000 C 
ATOM     15  C6  UNL     1      -1.574  -1.483  -2.018  0.00  0.00    +0.000 C 
ATOM     16  F1  UNL     1      -1.299  -0.382  -2.741  0.00  0.00    +0.000 F 
ENDBRANCH  10  14
ENDBRANCH   1  11
BRANCH   6  17
ATOM     17  C13 UNL     1       2.487   0.115   0.417  0.00  0.00    +0.000 C 
ATOM     18  O1  UNL     1       3.045   0.144   1.518  0.00  0.00    +0.000 OA
BRANCH  17  19
ATOM     19  C14 UNL     1       3.068   0.903  -0.754  0.00  0.00    +0.000 C 
ATOM     20  C15 UNL     1       3.356   0.015  -1.958  0.00  0.00    +0.000 C 
ATOM     21  C16 UNL     1       2.161   2.074  -1.114  0.00  0.00    +0.000 C 
ENDBRANCH  17  19
ENDBRANCH   6  17
TORSDOF 4
