REMARK  Name = ligantes_geracao2\Derivado_023.pdb
REMARK  5 active torsions:
REMARK  status: ('A' for Active; 'I' for Inactive)
REMARK    1  A    between atoms: C1_1  and  C2_2
REMARK    2  A    between atoms: C2_2  and  C3_3
REMARK    3  A    between atoms: C3_3  and  C4_5
REMARK    4  A    between atoms: C8_10  and  C9_11
REMARK    5  A    between atoms: C13_16  and  C14_17
REMARK                            x       y       z     vdW  Elec       q    Type
REMARK                         _______ _______ _______ _____ _____    ______ ____
ROOT
ATOM      1  C4  UNL     1       0.840  -0.203  -0.041  0.00  0.00    +0.000 C 
ATOM      2  C5  UNL     1       2.059  -0.814  -0.724  0.00  0.00    +0.000 C 
ATOM      3  F1  UNL     1       2.562  -1.821   0.040  0.00  0.00    +0.000 F 
ATOM      4  C6  UNL     1       1.518  -1.427  -1.999  0.00  0.00    +0.000 C 
ATOM      5  C7  UNL     1       0.211  -2.053  -1.525  0.00  0.00    +0.000 C 
ATOM      6  C8  UNL     1      -0.380  -1.035  -0.527  0.00  0.00    +0.000 C 
ENDROOT
BRANCH   6   7
ATOM      7  C9  UNL     1      -1.471  -0.115  -1.071  0.00  0.00    +0.000 C 
ATOM      8  C10 UNL     1      -1.609   0.149  -2.435  0.00  0.00    +0.000 C 
ATOM      9  N1  UNL     1      -2.523   0.985  -2.979  0.00  0.00    +0.000 NA
ATOM     10  C11 UNL     1      -3.359   1.606  -2.129  0.00  0.00    +0.000 C 
ATOM     11  C12 UNL     1      -3.318   1.433  -0.760  0.00  0.00    +0.000 C 
ATOM     12  C13 UNL     1      -2.361   0.567  -0.216  0.00  0.00    +0.000 C 
BRANCH  12  13
ATOM     13  C14 UNL     1      -2.339   0.388   1.240  0.00  0.00    +0.000 C 
ATOM     14  C15 UNL     1      -2.081   1.377   2.096  0.00  0.00    +0.000 C 
ATOM     15  F2  UNL     1      -1.806   2.632   1.700  0.00  0.00    +0.000 F 
ENDBRANCH  12  13
ENDBRANCH   6   7
BRANCH   1  16
ATOM     16  C3  UNL     1       1.023  -0.199   1.471  0.00  0.00    +0.000 C 
ATOM     17  O1  UNL     1       0.428  -0.981   2.216  0.00  0.00    +0.000 OA
BRANCH  16  19
ATOM     18  C1  UNL     1       3.318   0.180   2.413  0.00  0.00    +0.000 C 
ATOM     19  C2  UNL     1       1.991   0.817   2.050  0.00  0.00    +0.000 C 
ENDBRANCH  16  19
ENDBRANCH   1  16
TORSDOF 4
