REMARK  Name = ligantes_geracao2\Derivado_014.pdb
REMARK  8 active torsions:
REMARK  status: ('A' for Active; 'I' for Inactive)
REMARK    1  A    between atoms: C1_1  and  C2_2
REMARK    2  A    between atoms: C2_2  and  C3_3
REMARK    3  A    between atoms: C3_3  and  C4_4
REMARK    4  A    between atoms: C4_4  and  C5_6
REMARK    5  A    between atoms: C6_7  and  C7_8
REMARK    6  A    between atoms: C10_11  and  C11_12
REMARK    7  A    between atoms: C13_15  and  C14_16
REMARK    8  A    between atoms: C16_18  and  C17_19
REMARK                            x       y       z     vdW  Elec       q    Type
REMARK                         _______ _______ _______ _____ _____    ______ ____
ROOT
ATOM      1  C5  UNL     1      -0.794  -0.731   0.549  0.00  0.00    +0.000 C 
ATOM      2  C6  UNL     1      -1.107  -2.238   0.694  0.00  0.00    +0.000 C 
ATOM      3  C7  UNL     1      -2.483  -2.707   0.247  0.00  0.00    +0.000 C 
ATOM      4  C8  UNL     1       0.035  -2.946  -0.031  0.00  0.00    +0.000 C 
ATOM      5  C9  UNL     1       1.241  -2.092   0.328  0.00  0.00    +0.000 C 
ATOM      6  C10 UNL     1       0.718  -0.648   0.205  0.00  0.00    +0.000 C 
ENDROOT
BRANCH   6   7
ATOM      7  C11 UNL     1       1.487   0.349   1.050  0.00  0.00    +0.000 C 
ATOM      8  C12 UNL     1       1.591   0.184   2.429  0.00  0.00    +0.000 C 
ATOM      9  N1  UNL     1       2.252   1.021   3.259  0.00  0.00    +0.000 NA
ATOM     10  C13 UNL     1       2.847   2.105   2.720  0.00  0.00    +0.000 C 
ATOM     11  C14 UNL     1       3.576   3.027   3.649  0.00  0.00    +0.000 C 
ATOM     12  C15 UNL     1       2.803   2.370   1.360  0.00  0.00    +0.000 C 
ATOM     13  C16 UNL     1       2.116   1.487   0.518  0.00  0.00    +0.000 C 
BRANCH  13  14
ATOM     14  C17 UNL     1       2.083   1.790  -0.884  0.00  0.00    +0.000 C 
ATOM     15  N2  UNL     1       2.049   2.018  -2.021  0.00  0.00    +0.000 NA
ENDBRANCH  13  14
ENDBRANCH   6   7
BRANCH   1  16
ATOM     16  C4  UNL     1      -1.700   0.024  -0.430  0.00  0.00    +0.000 C 
ATOM     17  O1  UNL     1      -2.611   0.725   0.018  0.00  0.00    +0.000 OA
BRANCH  16  18
ATOM     18  C3  UNL     1      -1.472  -0.124  -1.929  0.00  0.00    +0.000 C 
BRANCH  18  20
ATOM     19  C1  UNL     1      -2.867   1.727  -2.972  0.00  0.00    +0.000 C 
ATOM     20  C2  UNL     1      -2.700   0.227  -2.770  0.00  0.00    +0.000 C 
ENDBRANCH  18  20
ENDBRANCH  16  18
ENDBRANCH   1  16
TORSDOF 5
