REMARK  Name = ligantes_geracao2\Derivado_001.pdb
REMARK  10 active torsions:
REMARK  status: ('A' for Active; 'I' for Inactive)
REMARK    1  A    between atoms: C1_1  and  C2_2
REMARK    2  A    between atoms: C2_2  and  C3_3
REMARK    3  A    between atoms: C3_3  and  C4_4
REMARK    4  A    between atoms: C3_3  and  C5_5
REMARK    5  A    between atoms: C5_5  and  C6_6
REMARK    6  A    between atoms: C6_6  and  C7_8
REMARK    7  A    between atoms: C8_9  and  C9_10
REMARK    8  A    between atoms: C12_13  and  C13_14
REMARK    9  A    between atoms: C17_19  and  C18_20
REMARK   10  A    between atoms: N2_21  and  O2_22
REMARK                            x       y       z     vdW  Elec       q    Type
REMARK                         _______ _______ _______ _____ _____    ______ ____
ROOT
ATOM      1  C7  UNL     1       0.442   0.225   0.785  0.00  0.00    +0.000 C 
ATOM      2  C8  UNL     1       0.438   1.648   1.369  0.00  0.00    +0.000 C 
ATOM      3  C9  UNL     1       0.102   2.751   0.363  0.00  0.00    +0.000 C 
ATOM      4  C10 UNL     1       1.875   1.778   1.878  0.00  0.00    +0.000 C 
ATOM      5  C11 UNL     1       2.744   1.074   0.837  0.00  0.00    +0.000 C 
ATOM      6  C12 UNL     1       1.808   0.131   0.056  0.00  0.00    +0.000 C 
ENDROOT
BRANCH   6   7
ATOM      7  C13 UNL     1       2.379  -1.263  -0.091  0.00  0.00    +0.000 C 
ATOM      8  C14 UNL     1       2.390  -2.151   0.985  0.00  0.00    +0.000 C 
ATOM      9  N1  UNL     1       2.807  -3.437   0.932  0.00  0.00    +0.000 NA
ATOM     10  C15 UNL     1       3.257  -3.883  -0.255  0.00  0.00    +0.000 C 
ATOM     11  C16 UNL     1       3.333  -3.093  -1.384  0.00  0.00    +0.000 C 
ATOM     12  C17 UNL     1       2.914  -1.762  -1.290  0.00  0.00    +0.000 C 
BRANCH  12  13
ATOM     13  C18 UNL     1       3.115  -0.957  -2.512  0.00  0.00    +0.000 C 
ATOM     14  N2  UNL     1       3.477   0.286  -2.477  0.00  0.00    +0.000 NA
BRANCH  14  15
ATOM     15  O2  UNL     1       3.626   0.750  -3.789  0.00  0.00    +0.000 OA
ATOM     16  H   UNL     1       3.886   1.636  -3.946  0.00  0.00    +0.000 HD
ENDBRANCH  14  15
ENDBRANCH  12  13
ENDBRANCH   6   7
BRANCH   1  17
ATOM     17  C6  UNL     1      -0.758  -0.090  -0.108  0.00  0.00    +0.000 C 
ATOM     18  O1  UNL     1      -0.631  -0.323  -1.309  0.00  0.00    +0.000 OA
BRANCH  17  19
ATOM     19  C5  UNL     1      -2.111  -0.170   0.592  0.00  0.00    +0.000 C 
BRANCH  19  20
ATOM     20  C3  UNL     1      -3.306  -0.272  -0.372  0.00  0.00    +0.000 C 
ATOM     21  C4  UNL     1      -3.564   1.064  -1.077  0.00  0.00    +0.000 C 
BRANCH  20  23
ATOM     22  C1  UNL     1      -5.078   0.090   1.482  0.00  0.00    +0.000 C 
ATOM     23  C2  UNL     1      -4.572  -0.786   0.344  0.00  0.00    +0.000 C 
ENDBRANCH  20  23
ENDBRANCH  19  20
ENDBRANCH  17  19
ENDBRANCH   1  17
TORSDOF 7
