REMARK  Name = ligantes_geracao2\Derivado_022.pdb
REMARK  7 active torsions:
REMARK  status: ('A' for Active; 'I' for Inactive)
REMARK    1  A    between atoms: C1_1  and  C2_2
REMARK    2  A    between atoms: C5_6  and  C6_7
REMARK    3  A    between atoms: C10_12  and  C11_13
REMARK    4  A    between atoms: C11_13  and  C12_15
REMARK    5  A    between atoms: C12_15  and  C13_16
REMARK    6  A    between atoms: C12_15  and  C14_17
REMARK    7  A    between atoms: C15_18  and  C16_19
REMARK                            x       y       z     vdW  Elec       q    Type
REMARK                         _______ _______ _______ _____ _____    ______ ____
ROOT
ATOM      1  C6  UNL     1       0.294  -0.998  -0.849  0.00  0.00    +0.000 C 
ATOM      2  C7  UNL     1       0.264  -0.901  -2.378  0.00  0.00    +0.000 C 
ATOM      3  C8  UNL     1      -1.203  -1.127  -2.713  0.00  0.00    +0.000 C 
ATOM      4  C9  UNL     1      -1.932  -0.356  -1.628  0.00  0.00    +0.000 C 
ATOM      5  F1  UNL     1      -1.933   0.965  -1.970  0.00  0.00    +0.000 F 
ATOM      6  C10 UNL     1      -1.092  -0.510  -0.364  0.00  0.00    +0.000 C 
ENDROOT
BRANCH   1  12
ATOM      7  C1  UNL     1       3.386   2.915   0.582  0.00  0.00    +0.000 C 
ATOM      8  C2  UNL     1       2.938   1.476   0.547  0.00  0.00    +0.000 C 
ATOM      9  C3  UNL     1       3.685   0.528   1.241  0.00  0.00    +0.000 C 
ATOM     10  N1  UNL     1       3.393  -0.779   1.286  0.00  0.00    +0.000 NA
ATOM     11  C4  UNL     1       2.305  -1.179   0.599  0.00  0.00    +0.000 C 
ATOM     12  C5  UNL     1       1.477  -0.342  -0.161  0.00  0.00    +0.000 C 
ATOM     13  C15 UNL     1       1.823   1.027  -0.199  0.00  0.00    +0.000 C 
BRANCH  13  14
ATOM     14  C16 UNL     1       1.050   1.995  -0.996  0.00  0.00    +0.000 C 
ATOM     15  C17 UNL     1       1.532   2.582  -2.096  0.00  0.00    +0.000 C 
ATOM     16  F2  UNL     1       2.768   2.329  -2.562  0.00  0.00    +0.000 F 
ENDBRANCH  13  14
ENDBRANCH   1  12
BRANCH   6  17
ATOM     17  C11 UNL     1      -1.781  -1.504   0.569  0.00  0.00    +0.000 C 
ATOM     18  O1  UNL     1      -1.617  -2.720   0.448  0.00  0.00    +0.000 OA
BRANCH  17  19
ATOM     19  C12 UNL     1      -2.729  -0.921   1.620  0.00  0.00    +0.000 C 
ATOM     20  C13 UNL     1      -3.665  -2.001   2.168  0.00  0.00    +0.000 C 
ATOM     21  C14 UNL     1      -1.936  -0.274   2.753  0.00  0.00    +0.000 C 
ENDBRANCH  17  19
ENDBRANCH   6  17
TORSDOF 4
