REMARK  Name = BGC
REMARK  6 active torsions:
REMARK  status: ('A' for Active; 'I' for Inactive)
REMARK    1  A    between atoms: C_1  and  O_8
REMARK    2  A    between atoms: C_2  and  O_9
REMARK    3  A    between atoms: C_3  and  O_10
REMARK    4  A    between atoms: C_4  and  C_5
REMARK    5  A    between atoms: C_5  and  O_12
REMARK    6  A    between atoms: C_6  and  O_7
REMARK                            x       y       z     vdW  Elec       q    Type
REMARK                         _______ _______ _______ _____ _____    ______ ____
ROOT
ATOM      1  C   UNL     1       1.598  -0.533   0.027  0.00  0.00    +0.201 C 
ATOM      2  C   UNL     1       0.965   0.393  -1.026  0.00  0.00    +0.179 C 
ATOM      3  C   UNL     1      -0.015   1.376  -0.361  0.00  0.00    +0.177 C 
ATOM      4  C   UNL     1      -0.982   0.664   0.619  0.00  0.00    +0.178 C 
ATOM      5  C   UNL     1       0.515  -1.176   0.915  0.00  0.00    +0.279 C 
ATOM      6  O   UNL     1      -0.328  -0.213   1.531  0.00  0.00    -0.341 OA
ENDROOT
BRANCH   5   7
ATOM      7  O   UNL     1      -0.241  -2.124   0.206  0.00  0.00    -0.365 OA
ATOM      8  H   UNL     1       0.352  -2.903   0.039  0.00  0.00    +0.213 HD
ENDBRANCH   5   7
BRANCH   1   9
ATOM      9  O   UNL     1       2.484   0.193   0.841  0.00  0.00    -0.384 OA
ATOM     10  H   UNL     1       3.304   0.354   0.303  0.00  0.00    +0.210 HD
ENDBRANCH   1   9
BRANCH   2  11
ATOM     11  O   UNL     1       0.296  -0.359  -2.006  0.00  0.00    -0.386 OA
ATOM     12  H   UNL     1       0.994  -0.776  -2.577  0.00  0.00    +0.210 HD
ENDBRANCH   2  11
BRANCH   3  13
ATOM     13  O   UNL     1       0.703   2.355   0.347  0.00  0.00    -0.386 OA
ATOM     14  H   UNL     1       1.064   2.992  -0.323  0.00  0.00    +0.210 HD
ENDBRANCH   3  13
BRANCH   4  15
ATOM     15  C   UNL     1      -2.200   0.018  -0.071  0.00  0.00    +0.190 C 
BRANCH  15  16
ATOM     16  O   UNL     1      -2.990  -0.640   0.881  0.00  0.00    -0.392 OA
ATOM     17  H   UNL     1      -3.758  -1.025   0.384  0.00  0.00    +0.210 HD
ENDBRANCH  15  16
ENDBRANCH   4  15
TORSDOF 6
