REMARK  Name = SPQ
REMARK  16 active torsions:
REMARK  status: ('A' for Active; 'I' for Inactive)
REMARK    1  A    between atoms: O_1  and  P_2
REMARK    2  A    between atoms: P_2  and  O_3
REMARK    3  A    between atoms: P_2  and  O_5
REMARK    4  A    between atoms: O_5  and  C_6
REMARK    5  A    between atoms: C_6  and  C_7
REMARK    6  A    between atoms: C_6  and  C_10
REMARK    7  A    between atoms: C_6  and  O_12
REMARK    8  A    between atoms: C_7  and  O_8
REMARK    9  A    between atoms: O_12  and  C_13
REMARK   10  A    between atoms: C_14  and  O_15
REMARK   11  A    between atoms: C_17  and  C_18
REMARK   12  A    between atoms: C_18  and  O_19
REMARK   13  A    between atoms: C_22  and  O_23
REMARK   14  A    between atoms: O_23  and  P_24
REMARK   15  A    between atoms: P_24  and  O_25
REMARK   16  A    between atoms: P_24  and  O_26
REMARK                            x       y       z     vdW  Elec       q    Type
REMARK                         _______ _______ _______ _____ _____    ______ ____
ROOT
ATOM      1  C   UNL     1       0.019  -0.454   0.626  0.00  0.00    +0.158 C 
ATOM      2  C   UNL     1       1.078   0.587   1.019  0.00  0.00    +0.177 C 
ATOM      3  C   UNL     1       0.602  -1.863   0.809  0.00  0.00    +0.076 C 
ATOM      4  C   UNL     1       1.982  -2.026   0.204  0.00  0.00    +0.038 C 
ATOM      5  C   UNL     1       2.773  -0.961  -0.032  0.00  0.00    +0.018 C 
ATOM      6  C   UNL     1       2.305   0.469   0.093  0.00  0.00    +0.185 C 
ENDROOT
BRANCH   4   7
ATOM      7  C   UNL     1       2.506  -3.396  -0.008  0.00  0.00    +0.333 C 
ATOM      8  O   UNL     1       1.806  -4.396   0.307  0.00  0.00    -0.245 OA
BRANCH   7   9
ATOM      9  O   UNL     1       3.771  -3.596  -0.557  0.00  0.00    -0.477 OA
ATOM     10  H   UNL     1       4.132  -4.530  -0.705  0.00  0.00    +0.295 HD
ENDBRANCH   7   9
ENDBRANCH   4   7
BRANCH   2  11
ATOM     11  O   UNL     1       0.528   1.876   0.931  0.00  0.00    -0.386 OA
ATOM     12  H   UNL     1       1.153   2.486   1.404  0.00  0.00    +0.210 HD
ENDBRANCH   2  11
BRANCH   1  13
ATOM     13  O   UNL     1      -1.111  -0.314   1.481  0.00  0.00    -0.331 OA
BRANCH  13  14
ATOM     14  C   UNL     1      -2.330  -0.050   0.795  0.00  0.00    +0.307 C 
BRANCH  14  15
ATOM     15  C   UNL     1      -3.368   0.254   1.904  0.00  0.00    +0.291 C 
ATOM     16  F   UNL     1      -3.290  -0.685   2.919  0.00  0.00    -0.243 F 
ENDBRANCH  14  15
BRANCH  14  17
ATOM     17  C   UNL     1      -2.735  -1.297   0.022  0.00  0.00    +0.368 C 
ATOM     18  O   UNL     1      -2.463  -1.402  -1.205  0.00  0.00    -0.245 OA
BRANCH  17  19
ATOM     19  O   UNL     1      -3.335  -2.366   0.682  0.00  0.00    -0.477 OA
ATOM     20  H   UNL     1      -3.582  -3.213   0.183  0.00  0.00    +0.295 HD
ENDBRANCH  17  19
ENDBRANCH  14  17
BRANCH  14  21
ATOM     21  O   UNL     1      -2.139   1.077  -0.067  0.00  0.00    -0.240 OA
BRANCH  21  22
ATOM     22  P   UNL     1      -3.582   1.681  -0.782  0.00  0.00    +0.475 P 
ATOM     23  O   UNL     1      -4.550   0.575  -1.138  0.00  0.00    -0.227 OA
BRANCH  22  24
ATOM     24  O   UNL     1      -3.171   2.517  -2.194  0.00  0.00    -0.303 OA
ATOM     25  H   UNL     1      -2.637   1.872  -2.722  0.00  0.00    +0.222 HD
ENDBRANCH  22  24
BRANCH  22  26
ATOM     26  O   UNL     1      -4.335   2.758   0.283  0.00  0.00    -0.303 OA
ATOM     27  H   UNL     1      -3.630   3.415   0.515  0.00  0.00    +0.222 HD
ENDBRANCH  22  26
ENDBRANCH  21  22
ENDBRANCH  14  21
ENDBRANCH  13  14
ENDBRANCH   1  13
BRANCH   6  28
ATOM     28  O   UNL     1       1.958   0.947  -1.195  0.00  0.00    -0.277 OA
BRANCH  28  29
ATOM     29  P   UNL     1       3.218   1.905  -1.840  0.00  0.00    +0.473 P 
ATOM     30  O   UNL     1       4.539   1.170  -1.761  0.00  0.00    -0.228 OA
BRANCH  29  31
ATOM     31  O   UNL     1       2.872   2.240  -3.461  0.00  0.00    -0.303 OA
ATOM     32  H   UNL     1       2.728   1.353  -3.877  0.00  0.00    +0.222 HD
ENDBRANCH  29  31
BRANCH  29  33
ATOM     33  O   UNL     1       3.320   3.368  -0.992  0.00  0.00    -0.303 OA
ATOM     34  H   UNL     1       3.897   3.179  -0.210  0.00  0.00    +0.222 HD
ENDBRANCH  29  33
ENDBRANCH  28  29
ENDBRANCH   6  28
TORSDOF 16
