REMARK  Name = PHE
REMARK  5 active torsions:
REMARK  status: ('A' for Active; 'I' for Inactive)
REMARK    1  A    between atoms: N_1  and  CA_2
REMARK    2  A    between atoms: CA_2  and  C_3
REMARK    3  A    between atoms: CA_2  and  CB_5
REMARK    4  A    between atoms: C_3  and  OXT_12
REMARK    5  A    between atoms: CB_5  and  CG_6
REMARK                            x       y       z     vdW  Elec       q    Type
REMARK                         _______ _______ _______ _____ _____    ______ ____
ROOT
ATOM      1  CA  PHE A   1      -1.585  -0.404  -0.120  0.00  0.00    +0.165 C 
ENDROOT
BRANCH   1   2
ATOM      2  N   PHE A   1      -1.602   0.209  -1.451  0.00  0.00    -0.318 NA
ATOM      3  H1  PHE A   1      -2.007   1.172  -1.389  0.00  0.00    +0.119 HD
ATOM      4  H2  PHE A   1      -2.227  -0.355  -2.073  0.00  0.00    +0.119 HD
ENDBRANCH   1   2
BRANCH   1   5
ATOM      5  C   PHE A   1      -2.972  -0.454   0.463  0.00  0.00    +0.322 C 
ATOM      6  O   PHE A   1      -3.624   0.609   0.652  0.00  0.00    -0.249 OA
BRANCH   5   7
ATOM      7  OXT PHE A   1      -3.537  -1.681   0.798  0.00  0.00    -0.480 OA
ATOM      8  HXT PHE A   1      -4.468  -1.734   1.193  0.00  0.00    +0.295 HD
ENDBRANCH   5   7
ENDBRANCH   1   5
BRANCH   1   9
ATOM      9  CB  PHE A   1      -0.634   0.361   0.818  0.00  0.00    +0.065 C 
BRANCH   9  10
ATOM     10  CG  PHE A   1       0.789   0.303   0.323  0.00  0.00    -0.045 A 
ATOM     11  CD1 PHE A   1       1.594  -0.812   0.613  0.00  0.00    +0.004 A 
ATOM     12  CD2 PHE A   1       1.309   1.339  -0.471  0.00  0.00    +0.004 A 
ATOM     13  CE1 PHE A   1       2.905  -0.879   0.131  0.00  0.00    +0.000 A 
ATOM     14  CE2 PHE A   1       2.621   1.268  -0.951  0.00  0.00    +0.000 A 
ATOM     15  CZ  PHE A   1       3.418   0.161  -0.649  0.00  0.00    +0.000 A 
ENDBRANCH   9  10
ENDBRANCH   1   9
TORSDOF 5
