MODEL 1
REMARK VINA RESULT:    -4.772      0.000      0.000
REMARK INTER + INTRA:          -5.330
REMARK INTER:                  -5.330
REMARK INTRA:                   0.000
REMARK UNBOUND:                 0.000
REMARK  Name = RIP
REMARK  4 active torsions:
REMARK  status: ('A' for Active; 'I' for Inactive)
REMARK    1  A    between atoms: C_1  and  O_6
REMARK    2  A    between atoms: C_2  and  O_7
REMARK    3  A    between atoms: C_3  and  O_8
REMARK    4  A    between atoms: C_4  and  O_9
REMARK                            x       y       z     vdW  Elec       q    Type
REMARK                         _______ _______ _______ _____ _____    ______ ____
ROOT
ATOM      1  C   UNL     1      63.467  27.232   6.351  0.00  0.00    +0.279 C 
ATOM      2  C   UNL     1      62.752  26.010   5.700  0.00  0.00    +0.201 C 
ATOM      3  C   UNL     1      61.224  26.200   5.666  0.00  0.00    +0.178 C 
ATOM      4  C   UNL     1      60.763  26.810   6.996  0.00  0.00    +0.171 C 
ATOM      5  C   UNL     1      61.506  28.144   7.274  0.00  0.00    +0.197 C 
ATOM      6  O   UNL     1      62.614  28.364   6.413  0.00  0.00    -0.346 OA
ENDROOT
BRANCH   1   7
ATOM      7  O   UNL     1      63.947  26.910   7.634  0.00  0.00    -0.365 OA
ATOM      8  H   UNL     1      64.214  27.764   8.063  0.00  0.00    +0.213 HD
ENDBRANCH   1   7
BRANCH   2   9
ATOM      9  O   UNL     1      63.224  25.800   4.393  0.00  0.00    -0.384 OA
ATOM     10  H   UNL     1      63.523  24.854   4.345  0.00  0.00    +0.210 HD
ENDBRANCH   2   9
BRANCH   3  11
ATOM     11  O   UNL     1      60.868  27.040   4.594  0.00  0.00    -0.386 OA
ATOM     12  H   UNL     1      60.268  26.516   4.003  0.00  0.00    +0.210 HD
ENDBRANCH   3  11
BRANCH   4  13
ATOM     13  O   UNL     1      59.373  27.011   6.974  0.00  0.00    -0.387 OA
ATOM     14  H   UNL     1      59.180  27.740   7.620  0.00  0.00    +0.210 HD
ENDBRANCH   4  13
TORSDOF 4
ENDMDL
MODEL 2
REMARK VINA RESULT:    -4.621      1.523      2.891
REMARK INTER + INTRA:          -5.162
REMARK INTER:                  -5.162
REMARK INTRA:                   0.000
REMARK UNBOUND:                 0.000
REMARK  Name = RIP
REMARK  4 active torsions:
REMARK  status: ('A' for Active; 'I' for Inactive)
REMARK    1  A    between atoms: C_1  and  O_6
REMARK    2  A    between atoms: C_2  and  O_7
REMARK    3  A    between atoms: C_3  and  O_8
REMARK    4  A    between atoms: C_4  and  O_9
REMARK                            x       y       z     vdW  Elec       q    Type
REMARK                         _______ _______ _______ _____ _____    ______ ____
ROOT
ATOM      1  C   UNL     1      62.400  24.961   5.526  0.00  0.00    +0.279 C 
ATOM      2  C   UNL     1      63.557  25.970   5.266  0.00  0.00    +0.201 C 
ATOM      3  C   UNL     1      63.540  27.126   6.284  0.00  0.00    +0.178 C 
ATOM      4  C   UNL     1      62.090  27.576   6.510  0.00  0.00    +0.171 C 
ATOM      5  C   UNL     1      61.213  26.383   6.973  0.00  0.00    +0.197 C 
ATOM      6  O   UNL     1      61.848  25.121   6.823  0.00  0.00    -0.346 OA
ENDROOT
BRANCH   1   7
ATOM      7  O   UNL     1      61.395  25.081   4.548  0.00  0.00    -0.365 OA
ATOM      8  H   UNL     1      61.377  26.034   4.271  0.00  0.00    +0.213 HD
ENDBRANCH   1   7
BRANCH   2   9
ATOM      9  O   UNL     1      64.802  25.320   5.320  0.00  0.00    -0.384 OA
ATOM     10  H   UNL     1      64.923  25.012   6.257  0.00  0.00    +0.210 HD
ENDBRANCH   2   9
BRANCH   3  11
ATOM     11  O   UNL     1      64.116  26.705   7.497  0.00  0.00    -0.386 OA
ATOM     12  H   UNL     1      65.099  26.807   7.401  0.00  0.00    +0.210 HD
ENDBRANCH   3  11
BRANCH   4  13
ATOM     13  O   UNL     1      62.055  28.615   7.454  0.00  0.00    -0.387 OA
ATOM     14  H   UNL     1      61.255  29.165   7.242  0.00  0.00    +0.210 HD
ENDBRANCH   4  13
TORSDOF 4
ENDMDL
MODEL 3
REMARK VINA RESULT:    -4.552      1.173      3.134
REMARK INTER + INTRA:          -5.084
REMARK INTER:                  -5.084
REMARK INTRA:                   0.000
REMARK UNBOUND:                 0.000
REMARK  Name = RIP
REMARK  4 active torsions:
REMARK  status: ('A' for Active; 'I' for Inactive)
REMARK    1  A    between atoms: C_1  and  O_6
REMARK    2  A    between atoms: C_2  and  O_7
REMARK    3  A    between atoms: C_3  and  O_8
REMARK    4  A    between atoms: C_4  and  O_9
REMARK                            x       y       z     vdW  Elec       q    Type
REMARK                         _______ _______ _______ _____ _____    ______ ____
ROOT
ATOM      1  C   UNL     1      60.493  27.781   5.998  0.00  0.00    +0.279 C 
ATOM      2  C   UNL     1      61.886  27.496   6.634  0.00  0.00    +0.201 C 
ATOM      3  C   UNL     1      62.503  26.195   6.086  0.00  0.00    +0.178 C 
ATOM      4  C   UNL     1      61.409  25.123   5.985  0.00  0.00    +0.171 C 
ATOM      5  C   UNL     1      60.233  25.622   5.104  0.00  0.00    +0.197 C 
ATOM      6  O   UNL     1      60.288  27.014   4.822  0.00  0.00    -0.346 OA
ENDROOT
BRANCH   1   7
ATOM      7  O   UNL     1      59.458  27.546   6.922  0.00  0.00    -0.365 OA
ATOM      8  H   UNL     1      58.609  27.545   6.409  0.00  0.00    +0.213 HD
ENDBRANCH   1   7
BRANCH   2   9
ATOM      9  O   UNL     1      62.767  28.565   6.395  0.00  0.00    -0.384 OA
ATOM     10  H   UNL     1      62.871  29.047   7.258  0.00  0.00    +0.210 HD
ENDBRANCH   2   9
BRANCH   3  11
ATOM     11  O   UNL     1      63.075  26.430   4.822  0.00  0.00    -0.386 OA
ATOM     12  H   UNL     1      64.022  26.136   4.874  0.00  0.00    +0.210 HD
ENDBRANCH   3  11
BRANCH   4  13
ATOM     13  O   UNL     1      61.950  23.936   5.466  0.00  0.00    -0.387 OA
ATOM     14  H   UNL     1      62.516  23.544   6.182  0.00  0.00    +0.210 HD
ENDBRANCH   4  13
TORSDOF 4
ENDMDL
MODEL 4
REMARK VINA RESULT:    -4.540      2.298      4.311
REMARK INTER + INTRA:          -5.071
REMARK INTER:                  -5.071
REMARK INTRA:                   0.000
REMARK UNBOUND:                 0.000
REMARK  Name = RIP
REMARK  4 active torsions:
REMARK  status: ('A' for Active; 'I' for Inactive)
REMARK    1  A    between atoms: C_1  and  O_6
REMARK    2  A    between atoms: C_2  and  O_7
REMARK    3  A    between atoms: C_3  and  O_8
REMARK    4  A    between atoms: C_4  and  O_9
REMARK                            x       y       z     vdW  Elec       q    Type
REMARK                         _______ _______ _______ _____ _____    ______ ____
ROOT
ATOM      1  C   UNL     1      58.785  24.482   5.062  0.00  0.00    +0.279 C 
ATOM      2  C   UNL     1      58.880  25.880   5.742  0.00  0.00    +0.201 C 
ATOM      3  C   UNL     1      60.318  26.431   5.706  0.00  0.00    +0.178 C 
ATOM      4  C   UNL     1      61.301  25.295   6.018  0.00  0.00    +0.171 C 
ATOM      5  C   UNL     1      61.107  24.115   5.029  0.00  0.00    +0.197 C 
ATOM      6  O   UNL     1      59.920  24.215   4.254  0.00  0.00    -0.346 OA
ENDROOT
BRANCH   1   7
ATOM      7  O   UNL     1      58.616  23.465   6.020  0.00  0.00    -0.365 OA
ATOM      8  H   UNL     1      58.461  22.622   5.520  0.00  0.00    +0.213 HD
ENDBRANCH   1   7
BRANCH   2   9
ATOM      9  O   UNL     1      58.015  26.794   5.117  0.00  0.00    -0.384 OA
ATOM     10  H   UNL     1      58.104  27.654   5.607  0.00  0.00    +0.210 HD
ENDBRANCH   2   9
BRANCH   3  11
ATOM     11  O   UNL     1      60.590  26.977   4.437  0.00  0.00    -0.386 OA
ATOM     12  H   UNL     1      60.250  26.330   3.765  0.00  0.00    +0.210 HD
ENDBRANCH   3  11
BRANCH   4  13
ATOM     13  O   UNL     1      62.619  25.775   5.967  0.00  0.00    -0.387 OA
ATOM     14  H   UNL     1      63.214  24.987   6.070  0.00  0.00    +0.210 HD
ENDBRANCH   4  13
TORSDOF 4
ENDMDL
MODEL 5
REMARK VINA RESULT:    -4.417      1.351      2.708
REMARK INTER + INTRA:          -4.934
REMARK INTER:                  -4.934
REMARK INTRA:                   0.000
REMARK UNBOUND:                 0.000
REMARK  Name = RIP
REMARK  4 active torsions:
REMARK  status: ('A' for Active; 'I' for Inactive)
REMARK    1  A    between atoms: C_1  and  O_6
REMARK    2  A    between atoms: C_2  and  O_7
REMARK    3  A    between atoms: C_3  and  O_8
REMARK    4  A    between atoms: C_4  and  O_9
REMARK                            x       y       z     vdW  Elec       q    Type
REMARK                         _______ _______ _______ _____ _____    ______ ____
ROOT
ATOM      1  C   UNL     1      62.988  27.151   6.867  0.00  0.00    +0.279 C 
ATOM      2  C   UNL     1      61.817  28.176   6.809  0.00  0.00    +0.201 C 
ATOM      3  C   UNL     1      60.502  27.509   6.366  0.00  0.00    +0.178 C 
ATOM      4  C   UNL     1      60.794  26.529   5.222  0.00  0.00    +0.171 C 
ATOM      5  C   UNL     1      61.857  25.484   5.655  0.00  0.00    +0.197 C 
ATOM      6  O   UNL     1      62.513  25.814   6.871  0.00  0.00    -0.346 OA
ENDROOT
BRANCH   1   7
ATOM      7  O   UNL     1      63.885  27.348   5.800  0.00  0.00    -0.365 OA
ATOM      8  H   UNL     1      64.729  26.888   6.046  0.00  0.00    +0.213 HD
ENDBRANCH   1   7
BRANCH   2   9
ATOM      9  O   UNL     1      61.632  28.786   8.062  0.00  0.00    -0.384 OA
ATOM     10  H   UNL     1      62.535  29.024   8.400  0.00  0.00    +0.210 HD
ENDBRANCH   2   9
BRANCH   3  11
ATOM     11  O   UNL     1      59.918  26.832   7.453  0.00  0.00    -0.386 OA
ATOM     12  H   UNL     1      59.197  26.257   7.083  0.00  0.00    +0.210 HD
ENDBRANCH   3  11
BRANCH   4  13
ATOM     13  O   UNL     1      59.608  25.895   4.821  0.00  0.00    -0.387 OA
ATOM     14  H   UNL     1      58.882  26.261   5.391  0.00  0.00    +0.210 HD
ENDBRANCH   4  13
TORSDOF 4
ENDMDL
MODEL 6
REMARK VINA RESULT:    -4.417      1.874      3.285
REMARK INTER + INTRA:          -4.933
REMARK INTER:                  -4.933
REMARK INTRA:                   0.000
REMARK UNBOUND:                 0.000
REMARK  Name = RIP
REMARK  4 active torsions:
REMARK  status: ('A' for Active; 'I' for Inactive)
REMARK    1  A    between atoms: C_1  and  O_6
REMARK    2  A    between atoms: C_2  and  O_7
REMARK    3  A    between atoms: C_3  and  O_8
REMARK    4  A    between atoms: C_4  and  O_9
REMARK                            x       y       z     vdW  Elec       q    Type
REMARK                         _______ _______ _______ _____ _____    ______ ____
ROOT
ATOM      1  C   UNL     1      61.091  24.510   5.582  0.00  0.00    +0.279 C 
ATOM      2  C   UNL     1      61.896  25.822   5.825  0.00  0.00    +0.201 C 
ATOM      3  C   UNL     1      60.975  27.057   5.836  0.00  0.00    +0.178 C 
ATOM      4  C   UNL     1      59.939  26.923   4.712  0.00  0.00    +0.171 C 
ATOM      5  C   UNL     1      59.139  25.602   4.860  0.00  0.00    +0.197 C 
ATOM      6  O   UNL     1      59.703  24.701   5.802  0.00  0.00    -0.346 OA
ENDROOT
BRANCH   1   7
ATOM      7  O   UNL     1      61.318  24.012   4.286  0.00  0.00    -0.365 OA
ATOM      8  H   UNL     1      60.545  23.433   4.061  0.00  0.00    +0.213 HD
ENDBRANCH   1   7
BRANCH   2   9
ATOM      9  O   UNL     1      62.598  25.754   7.041  0.00  0.00    -0.384 OA
ATOM     10  H   UNL     1      63.399  26.333   6.941  0.00  0.00    +0.210 HD
ENDBRANCH   2   9
BRANCH   3  11
ATOM     11  O   UNL     1      60.332  27.165   7.083  0.00  0.00    -0.386 OA
ATOM     12  H   UNL     1      59.812  28.010   7.069  0.00  0.00    +0.210 HD
ENDBRANCH   3  11
BRANCH   4  13
ATOM     13  O   UNL     1      59.077  28.031   4.722  0.00  0.00    -0.387 OA
ATOM     14  H   UNL     1      58.231  27.729   5.145  0.00  0.00    +0.210 HD
ENDBRANCH   4  13
TORSDOF 4
ENDMDL
MODEL 7
REMARK VINA RESULT:    -4.396      2.647      4.396
REMARK INTER + INTRA:          -4.910
REMARK INTER:                  -4.910
REMARK INTRA:                   0.000
REMARK UNBOUND:                 0.000
REMARK  Name = RIP
REMARK  4 active torsions:
REMARK  status: ('A' for Active; 'I' for Inactive)
REMARK    1  A    between atoms: C_1  and  O_6
REMARK    2  A    between atoms: C_2  and  O_7
REMARK    3  A    between atoms: C_3  and  O_8
REMARK    4  A    between atoms: C_4  and  O_9
REMARK                            x       y       z     vdW  Elec       q    Type
REMARK                         _______ _______ _______ _____ _____    ______ ____
ROOT
ATOM      1  C   UNL     1      61.453  30.670   6.665  0.00  0.00    +0.279 C 
ATOM      2  C   UNL     1      60.662  30.862   7.993  0.00  0.00    +0.201 C 
ATOM      3  C   UNL     1      60.271  29.510   8.620  0.00  0.00    +0.178 C 
ATOM      4  C   UNL     1      59.801  28.558   7.512  0.00  0.00    +0.171 C 
ATOM      5  C   UNL     1      60.898  28.398   6.427  0.00  0.00    +0.197 C 
ATOM      6  O   UNL     1      61.949  29.347   6.539  0.00  0.00    -0.346 OA
ENDROOT
BRANCH   1   7
ATOM      7  O   UNL     1      60.659  31.003   5.552  0.00  0.00    -0.365 OA
ATOM      8  H   UNL     1      60.088  31.767   5.824  0.00  0.00    +0.213 HD
ENDBRANCH   1   7
BRANCH   2   9
ATOM      9  O   UNL     1      61.419  31.603   8.917  0.00  0.00    -0.384 OA
ATOM     10  H   UNL     1      61.729  32.419   8.443  0.00  0.00    +0.210 HD
ENDBRANCH   2   9
BRANCH   3  11
ATOM     11  O   UNL     1      61.374  28.961   9.301  0.00  0.00    -0.386 OA
ATOM     12  H   UNL     1      61.492  29.488  10.134  0.00  0.00    +0.210 HD
ENDBRANCH   3  11
BRANCH   4  13
ATOM     13  O   UNL     1      59.463  27.312   8.065  0.00  0.00    -0.387 OA
ATOM     14  H   UNL     1      59.173  26.736   7.310  0.00  0.00    +0.210 HD
ENDBRANCH   4  13
TORSDOF 4
ENDMDL
MODEL 8
REMARK VINA RESULT:    -4.389      1.852      2.857
REMARK INTER + INTRA:          -4.902
REMARK INTER:                  -4.902
REMARK INTRA:                   0.000
REMARK UNBOUND:                 0.000
REMARK  Name = RIP
REMARK  4 active torsions:
REMARK  status: ('A' for Active; 'I' for Inactive)
REMARK    1  A    between atoms: C_1  and  O_6
REMARK    2  A    between atoms: C_2  and  O_7
REMARK    3  A    between atoms: C_3  and  O_8
REMARK    4  A    between atoms: C_4  and  O_9
REMARK                            x       y       z     vdW  Elec       q    Type
REMARK                         _______ _______ _______ _____ _____    ______ ____
ROOT
ATOM      1  C   UNL     1      61.855  24.078   4.986  0.00  0.00    +0.279 C 
ATOM      2  C   UNL     1      60.388  24.604   4.995  0.00  0.00    +0.201 C 
ATOM      3  C   UNL     1      60.311  26.055   5.504  0.00  0.00    +0.178 C 
ATOM      4  C   UNL     1      61.252  26.220   6.704  0.00  0.00    +0.171 C 
ATOM      5  C   UNL     1      62.701  25.816   6.323  0.00  0.00    +0.197 C 
ATOM      6  O   UNL     1      62.791  25.140   5.077  0.00  0.00    -0.346 OA
ENDROOT
BRANCH   1   7
ATOM      7  O   UNL     1      62.065  23.149   6.022  0.00  0.00    -0.365 OA
ATOM      8  H   UNL     1      62.442  23.654   6.788  0.00  0.00    +0.213 HD
ENDBRANCH   1   7
BRANCH   2   9
ATOM      9  O   UNL     1      59.828  24.529   3.708  0.00  0.00    -0.384 OA
ATOM     10  H   UNL     1      60.502  24.903   3.081  0.00  0.00    +0.210 HD
ENDBRANCH   2   9
BRANCH   3  11
ATOM     11  O   UNL     1      60.672  26.944   4.474  0.00  0.00    -0.386 OA
ATOM     12  H   UNL     1      59.895  27.007   3.860  0.00  0.00    +0.210 HD
ENDBRANCH   3  11
BRANCH   4  13
ATOM     13  O   UNL     1      61.210  27.545   7.166  0.00  0.00    -0.387 OA
ATOM     14  H   UNL     1      61.256  27.503   8.157  0.00  0.00    +0.210 HD
ENDBRANCH   4  13
TORSDOF 4
ENDMDL
MODEL 9
REMARK VINA RESULT:    -4.382      1.793      2.105
REMARK INTER + INTRA:          -4.894
REMARK INTER:                  -4.894
REMARK INTRA:                   0.000
REMARK UNBOUND:                 0.000
REMARK  Name = RIP
REMARK  4 active torsions:
REMARK  status: ('A' for Active; 'I' for Inactive)
REMARK    1  A    between atoms: C_1  and  O_6
REMARK    2  A    between atoms: C_2  and  O_7
REMARK    3  A    between atoms: C_3  and  O_8
REMARK    4  A    between atoms: C_4  and  O_9
REMARK                            x       y       z     vdW  Elec       q    Type
REMARK                         _______ _______ _______ _____ _____    ______ ____
ROOT
ATOM      1  C   UNL     1      62.184  25.681   5.695  0.00  0.00    +0.279 C 
ATOM      2  C   UNL     1      61.303  24.413   5.491  0.00  0.00    +0.201 C 
ATOM      3  C   UNL     1      59.830  24.782   5.229  0.00  0.00    +0.178 C 
ATOM      4  C   UNL     1      59.423  25.926   6.167  0.00  0.00    +0.171 C 
ATOM      5  C   UNL     1      60.366  27.144   5.988  0.00  0.00    +0.197 C 
ATOM      6  O   UNL     1      61.531  26.851   5.228  0.00  0.00    -0.346 OA
ENDROOT
BRANCH   1   7
ATOM      7  O   UNL     1      62.550  25.831   7.045  0.00  0.00    -0.365 OA
ATOM      8  H   UNL     1      61.715  26.007   7.551  0.00  0.00    +0.213 HD
ENDBRANCH   1   7
BRANCH   2   9
ATOM      9  O   UNL     1      61.787  23.641   4.422  0.00  0.00    -0.384 OA
ATOM     10  H   UNL     1      61.237  23.874   3.628  0.00  0.00    +0.210 HD
ENDBRANCH   2   9
BRANCH   3  11
ATOM     11  O   UNL     1      59.666  25.170   3.886  0.00  0.00    -0.386 OA
ATOM     12  H   UNL     1      60.227  25.976   3.746  0.00  0.00    +0.210 HD
ENDBRANCH   3  11
BRANCH   4  13
ATOM     13  O   UNL     1      58.089  26.290   5.925  0.00  0.00    -0.387 OA
ATOM     14  H   UNL     1      57.985  27.223   6.247  0.00  0.00    +0.210 HD
ENDBRANCH   4  13
TORSDOF 4
ENDMDL
MODEL 10
REMARK VINA RESULT:    -4.321      1.885      3.480
REMARK INTER + INTRA:          -4.826
REMARK INTER:                  -4.826
REMARK INTRA:                   0.000
REMARK UNBOUND:                 0.000
REMARK  Name = RIP
REMARK  4 active torsions:
REMARK  status: ('A' for Active; 'I' for Inactive)
REMARK    1  A    between atoms: C_1  and  O_6
REMARK    2  A    between atoms: C_2  and  O_7
REMARK    3  A    between atoms: C_3  and  O_8
REMARK    4  A    between atoms: C_4  and  O_9
REMARK                            x       y       z     vdW  Elec       q    Type
REMARK                         _______ _______ _______ _____ _____    ______ ____
ROOT
ATOM      1  C   UNL     1      60.033  26.878   5.003  0.00  0.00    +0.279 C 
ATOM      2  C   UNL     1      59.232  28.091   5.564  0.00  0.00    +0.201 C 
ATOM      3  C   UNL     1      60.062  28.896   6.582  0.00  0.00    +0.178 C 
ATOM      4  C   UNL     1      60.826  27.923   7.490  0.00  0.00    +0.171 C 
ATOM      5  C   UNL     1      61.711  26.968   6.647  0.00  0.00    +0.197 C 
ATOM      6  O   UNL     1      61.423  27.007   5.257  0.00  0.00    -0.346 OA
ENDROOT
BRANCH   1   7
ATOM      7  O   UNL     1      59.550  25.666   5.532  0.00  0.00    -0.365 OA
ATOM      8  H   UNL     1      58.626  25.551   5.188  0.00  0.00    +0.213 HD
ENDBRANCH   1   7
BRANCH   2   9
ATOM      9  O   UNL     1      58.825  28.939   4.519  0.00  0.00    -0.384 OA
ATOM     10  H   UNL     1      58.704  29.842   4.915  0.00  0.00    +0.210 HD
ENDBRANCH   2   9
BRANCH   3  11
ATOM     11  O   UNL     1      60.961  29.741   5.905  0.00  0.00    -0.386 OA
ATOM     12  H   UNL     1      60.499  30.610   5.774  0.00  0.00    +0.210 HD
ENDBRANCH   3  11
BRANCH   4  13
ATOM     13  O   UNL     1      61.606  28.642   8.410  0.00  0.00    -0.387 OA
ATOM     14  H   UNL     1      62.364  29.029   7.899  0.00  0.00    +0.210 HD
ENDBRANCH   4  13
TORSDOF 4
ENDMDL
MODEL 11
REMARK VINA RESULT:    -4.314     10.021     11.334
REMARK INTER + INTRA:          -4.819
REMARK INTER:                  -4.819
REMARK INTRA:                   0.000
REMARK UNBOUND:                 0.000
REMARK  Name = RIP
REMARK  4 active torsions:
REMARK  status: ('A' for Active; 'I' for Inactive)
REMARK    1  A    between atoms: C_1  and  O_6
REMARK    2  A    between atoms: C_2  and  O_7
REMARK    3  A    between atoms: C_3  and  O_8
REMARK    4  A    between atoms: C_4  and  O_9
REMARK                            x       y       z     vdW  Elec       q    Type
REMARK                         _______ _______ _______ _____ _____    ______ ____
ROOT
ATOM      1  C   UNL     1      65.622  38.181   8.525  0.00  0.00    +0.279 C 
ATOM      2  C   UNL     1      64.544  37.059   8.607  0.00  0.00    +0.201 C 
ATOM      3  C   UNL     1      65.046  35.848   9.415  0.00  0.00    +0.178 C 
ATOM      4  C   UNL     1      66.505  35.561   9.038  0.00  0.00    +0.171 C 
ATOM      5  C   UNL     1      67.388  36.817   9.268  0.00  0.00    +0.197 C 
ATOM      6  O   UNL     1      66.638  38.001   9.500  0.00  0.00    -0.346 OA
ENDROOT
BRANCH   1   7
ATOM      7  O   UNL     1      66.186  38.247   7.238  0.00  0.00    -0.365 OA
ATOM      8  H   UNL     1      66.161  37.327   6.865  0.00  0.00    +0.213 HD
ENDBRANCH   1   7
BRANCH   2   9
ATOM      9  O   UNL     1      63.363  37.551   9.188  0.00  0.00    -0.384 OA
ATOM     10  H   UNL     1      63.434  37.385  10.165  0.00  0.00    +0.210 HD
ENDBRANCH   2   9
BRANCH   3  11
ATOM     11  O   UNL     1      64.941  36.115  10.793  0.00  0.00    -0.386 OA
ATOM     12  H   UNL     1      65.864  36.241  11.135  0.00  0.00    +0.210 HD
ENDBRANCH   3  11
BRANCH   4  13
ATOM     13  O   UNL     1      66.986  34.473   9.784  0.00  0.00    -0.387 OA
ATOM     14  H   UNL     1      67.035  34.774  10.728  0.00  0.00    +0.210 HD
ENDBRANCH   4  13
TORSDOF 4
ENDMDL
MODEL 12
REMARK VINA RESULT:    -4.255      3.206      4.815
REMARK INTER + INTRA:          -4.752
REMARK INTER:                  -4.752
REMARK INTRA:                   0.000
REMARK UNBOUND:                 0.000
REMARK  Name = RIP
REMARK  4 active torsions:
REMARK  status: ('A' for Active; 'I' for Inactive)
REMARK    1  A    between atoms: C_1  and  O_6
REMARK    2  A    between atoms: C_2  and  O_7
REMARK    3  A    between atoms: C_3  and  O_8
REMARK    4  A    between atoms: C_4  and  O_9
REMARK                            x       y       z     vdW  Elec       q    Type
REMARK                         _______ _______ _______ _____ _____    ______ ____
ROOT
ATOM      1  C   UNL     1      59.197  26.876   9.201  0.00  0.00    +0.279 C 
ATOM      2  C   UNL     1      59.771  27.752   8.047  0.00  0.00    +0.201 C 
ATOM      3  C   UNL     1      60.165  29.156   8.545  0.00  0.00    +0.178 C 
ATOM      4  C   UNL     1      59.090  29.669   9.511  0.00  0.00    +0.171 C 
ATOM      5  C   UNL     1      58.888  28.674  10.684  0.00  0.00    +0.197 C 
ATOM      6  O   UNL     1      59.514  27.416  10.474  0.00  0.00    -0.346 OA
ENDROOT
BRANCH   1   7
ATOM      7  O   UNL     1      57.805  26.717   9.069  0.00  0.00    -0.365 OA
ATOM      8  H   UNL     1      57.534  26.013   9.714  0.00  0.00    +0.213 HD
ENDBRANCH   1   7
BRANCH   2   9
ATOM      9  O   UNL     1      60.890  27.132   7.465  0.00  0.00    -0.384 OA
ATOM     10  H   UNL     1      60.549  26.564   6.725  0.00  0.00    +0.210 HD
ENDBRANCH   2   9
BRANCH   3  11
ATOM     11  O   UNL     1      61.416  29.102   9.189  0.00  0.00    -0.386 OA
ATOM     12  H   UNL     1      61.263  28.701  10.084  0.00  0.00    +0.210 HD
ENDBRANCH   3  11
BRANCH   4  13
ATOM     13  O   UNL     1      59.446  30.939   9.991  0.00  0.00    -0.387 OA
ATOM     14  H   UNL     1      58.807  31.158  10.719  0.00  0.00    +0.210 HD
ENDBRANCH   4  13
TORSDOF 4
ENDMDL
MODEL 13
REMARK VINA RESULT:    -4.250      1.674      1.979
REMARK INTER + INTRA:          -4.747
REMARK INTER:                  -4.747
REMARK INTRA:                   0.000
REMARK UNBOUND:                 0.000
REMARK  Name = RIP
REMARK  4 active torsions:
REMARK  status: ('A' for Active; 'I' for Inactive)
REMARK    1  A    between atoms: C_1  and  O_6
REMARK    2  A    between atoms: C_2  and  O_7
REMARK    3  A    between atoms: C_3  and  O_8
REMARK    4  A    between atoms: C_4  and  O_9
REMARK                            x       y       z     vdW  Elec       q    Type
REMARK                         _______ _______ _______ _____ _____    ______ ____
ROOT
ATOM      1  C   UNL     1      61.791  28.112   7.078  0.00  0.00    +0.279 C 
ATOM      2  C   UNL     1      61.341  26.665   6.718  0.00  0.00    +0.201 C 
ATOM      3  C   UNL     1      60.174  26.669   5.712  0.00  0.00    +0.178 C 
ATOM      4  C   UNL     1      59.177  27.768   6.100  0.00  0.00    +0.171 C 
ATOM      5  C   UNL     1      59.884  29.148   6.172  0.00  0.00    +0.197 C 
ATOM      6  O   UNL     1      61.302  29.060   6.142  0.00  0.00    -0.346 OA
ENDROOT
BRANCH   1   7
ATOM      7  O   UNL     1      61.387  28.458   8.380  0.00  0.00    -0.365 OA
ATOM      8  H   UNL     1      60.504  28.904   8.299  0.00  0.00    +0.213 HD
ENDBRANCH   1   7
BRANCH   2   9
ATOM      9  O   UNL     1      62.414  25.932   6.185  0.00  0.00    -0.384 OA
ATOM     10  H   UNL     1      62.925  26.555   5.603  0.00  0.00    +0.210 HD
ENDBRANCH   2   9
BRANCH   3  11
ATOM     11  O   UNL     1      60.664  26.890   4.411  0.00  0.00    -0.386 OA
ATOM     12  H   UNL     1      60.153  27.654   4.035  0.00  0.00    +0.210 HD
ENDBRANCH   3  11
BRANCH   4  13
ATOM     13  O   UNL     1      58.118  27.800   5.178  0.00  0.00    -0.387 OA
ATOM     14  H   UNL     1      58.454  27.379   4.344  0.00  0.00    +0.210 HD
ENDBRANCH   4  13
TORSDOF 4
ENDMDL
MODEL 14
REMARK VINA RESULT:    -4.242      2.094      3.589
REMARK INTER + INTRA:          -4.738
REMARK INTER:                  -4.738
REMARK INTRA:                   0.000
REMARK UNBOUND:                 0.000
REMARK  Name = RIP
REMARK  4 active torsions:
REMARK  status: ('A' for Active; 'I' for Inactive)
REMARK    1  A    between atoms: C_1  and  O_6
REMARK    2  A    between atoms: C_2  and  O_7
REMARK    3  A    between atoms: C_3  and  O_8
REMARK    4  A    between atoms: C_4  and  O_9
REMARK                            x       y       z     vdW  Elec       q    Type
REMARK                         _______ _______ _______ _____ _____    ______ ____
ROOT
ATOM      1  C   UNL     1      59.740  24.325   5.350  0.00  0.00    +0.279 C 
ATOM      2  C   UNL     1      61.282  24.370   5.130  0.00  0.00    +0.201 C 
ATOM      3  C   UNL     1      61.902  25.648   5.725  0.00  0.00    +0.178 C 
ATOM      4  C   UNL     1      60.991  26.842   5.414  0.00  0.00    +0.171 C 
ATOM      5  C   UNL     1      59.556  26.591   5.949  0.00  0.00    +0.197 C 
ATOM      6  O   UNL     1      59.328  25.246   6.347  0.00  0.00    -0.346 OA
ENDROOT
BRANCH   1   7
ATOM      7  O   UNL     1      59.051  24.564   4.147  0.00  0.00    -0.365 OA
ATOM      8  H   UNL     1      59.527  25.302   3.685  0.00  0.00    +0.213 HD
ENDBRANCH   1   7
BRANCH   2   9
ATOM      9  O   UNL     1      61.896  23.243   5.702  0.00  0.00    -0.384 OA
ATOM     10  H   UNL     1      61.354  22.995   6.497  0.00  0.00    +0.210 HD
ENDBRANCH   2   9
BRANCH   3  11
ATOM     11  O   UNL     1      62.057  25.501   7.116  0.00  0.00    -0.386 OA
ATOM     12  H   UNL     1      62.957  25.853   7.346  0.00  0.00    +0.210 HD
ENDBRANCH   3  11
BRANCH   4  13
ATOM     13  O   UNL     1      61.531  28.013   5.970  0.00  0.00    -0.387 OA
ATOM     14  H   UNL     1      62.083  27.731   6.746  0.00  0.00    +0.210 HD
ENDBRANCH   4  13
TORSDOF 4
ENDMDL
MODEL 15
REMARK VINA RESULT:    -4.229      2.368      3.435
REMARK INTER + INTRA:          -4.724
REMARK INTER:                  -4.724
REMARK INTRA:                   0.000
REMARK UNBOUND:                 0.000
REMARK  Name = RIP
REMARK  4 active torsions:
REMARK  status: ('A' for Active; 'I' for Inactive)
REMARK    1  A    between atoms: C_1  and  O_6
REMARK    2  A    between atoms: C_2  and  O_7
REMARK    3  A    between atoms: C_3  and  O_8
REMARK    4  A    between atoms: C_4  and  O_9
REMARK                            x       y       z     vdW  Elec       q    Type
REMARK                         _______ _______ _______ _____ _____    ______ ____
ROOT
ATOM      1  C   UNL     1      59.846  27.144   5.597  0.00  0.00    +0.279 C 
ATOM      2  C   UNL     1      60.916  26.016   5.691  0.00  0.00    +0.201 C 
ATOM      3  C   UNL     1      60.309  24.632   5.392  0.00  0.00    +0.178 C 
ATOM      4  C   UNL     1      58.938  24.526   6.074  0.00  0.00    +0.171 C 
ATOM      5  C   UNL     1      58.007  25.678   5.615  0.00  0.00    +0.197 C 
ATOM      6  O   UNL     1      58.685  26.707   4.907  0.00  0.00    -0.346 OA
ENDROOT
BRANCH   1   7
ATOM      7  O   UNL     1      59.504  27.623   6.875  0.00  0.00    -0.365 OA
ATOM      8  H   UNL     1      59.825  26.950   7.530  0.00  0.00    +0.213 HD
ENDBRANCH   1   7
BRANCH   2   9
ATOM      9  O   UNL     1      61.974  26.263   4.800  0.00  0.00    -0.384 OA
ATOM     10  H   UNL     1      61.570  26.635   3.972  0.00  0.00    +0.210 HD
ENDBRANCH   2   9
BRANCH   3  11
ATOM     11  O   UNL     1      60.178  24.457   4.002  0.00  0.00    -0.386 OA
ATOM     12  H   UNL     1      60.585  23.579   3.781  0.00  0.00    +0.210 HD
ENDBRANCH   3  11
BRANCH   4  13
ATOM     13  O   UNL     1      58.360  23.277   5.792  0.00  0.00    -0.387 OA
ATOM     14  H   UNL     1      58.386  23.168   4.806  0.00  0.00    +0.210 HD
ENDBRANCH   4  13
TORSDOF 4
ENDMDL
MODEL 16
REMARK VINA RESULT:    -4.214      3.658      5.454
REMARK INTER + INTRA:          -4.706
REMARK INTER:                  -4.706
REMARK INTRA:                   0.000
REMARK UNBOUND:                 0.000
REMARK  Name = RIP
REMARK  4 active torsions:
REMARK  status: ('A' for Active; 'I' for Inactive)
REMARK    1  A    between atoms: C_1  and  O_6
REMARK    2  A    between atoms: C_2  and  O_7
REMARK    3  A    between atoms: C_3  and  O_8
REMARK    4  A    between atoms: C_4  and  O_9
REMARK                            x       y       z     vdW  Elec       q    Type
REMARK                         _______ _______ _______ _____ _____    ______ ____
ROOT
ATOM      1  C   UNL     1      60.391  31.463   5.851  0.00  0.00    +0.279 C 
ATOM      2  C   UNL     1      60.025  32.135   7.208  0.00  0.00    +0.201 C 
ATOM      3  C   UNL     1      60.658  31.388   8.398  0.00  0.00    +0.178 C 
ATOM      4  C   UNL     1      60.534  29.876   8.167  0.00  0.00    +0.171 C 
ATOM      5  C   UNL     1      61.184  29.473   6.818  0.00  0.00    +0.197 C 
ATOM      6  O   UNL     1      61.494  30.581   5.984  0.00  0.00    -0.346 OA
ENDROOT
BRANCH   1   7
ATOM      7  O   UNL     1      59.284  30.784   5.309  0.00  0.00    -0.365 OA
ATOM      8  H   UNL     1      59.197  29.932   5.808  0.00  0.00    +0.213 HD
ENDBRANCH   1   7
BRANCH   2   9
ATOM      9  O   UNL     1      60.443  33.476   7.224  0.00  0.00    -0.384 OA
ATOM     10  H   UNL     1      60.631  33.706   8.172  0.00  0.00    +0.210 HD
ENDBRANCH   2   9
BRANCH   3  11
ATOM     11  O   UNL     1      62.011  31.753   8.527  0.00  0.00    -0.386 OA
ATOM     12  H   UNL     1      62.082  32.318   9.341  0.00  0.00    +0.210 HD
ENDBRANCH   3  11
BRANCH   4  13
ATOM     13  O   UNL     1      61.127  29.180   9.233  0.00  0.00    -0.387 OA
ATOM     14  H   UNL     1      60.849  28.231   9.142  0.00  0.00    +0.210 HD
ENDBRANCH   4  13
TORSDOF 4
ENDMDL
MODEL 17
REMARK VINA RESULT:    -4.113      2.367      3.918
REMARK INTER + INTRA:          -4.594
REMARK INTER:                  -4.594
REMARK INTRA:                   0.000
REMARK UNBOUND:                 0.000
REMARK  Name = RIP
REMARK  4 active torsions:
REMARK  status: ('A' for Active; 'I' for Inactive)
REMARK    1  A    between atoms: C_1  and  O_6
REMARK    2  A    between atoms: C_2  and  O_7
REMARK    3  A    between atoms: C_3  and  O_8
REMARK    4  A    between atoms: C_4  and  O_9
REMARK                            x       y       z     vdW  Elec       q    Type
REMARK                         _______ _______ _______ _____ _____    ______ ____
ROOT
ATOM      1  C   UNL     1      61.131  28.132   7.129  0.00  0.00    +0.279 C 
ATOM      2  C   UNL     1      60.348  28.898   8.237  0.00  0.00    +0.201 C 
ATOM      3  C   UNL     1      59.248  28.020   8.862  0.00  0.00    +0.178 C 
ATOM      4  C   UNL     1      58.542  27.230   7.753  0.00  0.00    +0.171 C 
ATOM      5  C   UNL     1      59.565  26.388   6.945  0.00  0.00    +0.197 C 
ATOM      6  O   UNL     1      60.918  26.732   7.211  0.00  0.00    -0.346 OA
ENDROOT
BRANCH   1   7
ATOM      7  O   UNL     1      60.787  28.605   5.849  0.00  0.00    -0.365 OA
ATOM      8  H   UNL     1      59.870  28.977   5.916  0.00  0.00    +0.213 HD
ENDBRANCH   1   7
BRANCH   2   9
ATOM      9  O   UNL     1      61.222  29.339   9.245  0.00  0.00    -0.384 OA
ATOM     10  H   UNL     1      61.186  28.662   9.971  0.00  0.00    +0.210 HD
ENDBRANCH   2   9
BRANCH   3  11
ATOM     11  O   UNL     1      59.814  27.141   9.804  0.00  0.00    -0.386 OA
ATOM     12  H   UNL     1      59.882  26.252   9.367  0.00  0.00    +0.210 HD
ENDBRANCH   3  11
BRANCH   4  13
ATOM     13  O   UNL     1      57.550  26.406   8.309  0.00  0.00    -0.387 OA
ATOM     14  H   UNL     1      57.646  25.516   7.880  0.00  0.00    +0.210 HD
ENDBRANCH   4  13
TORSDOF 4
ENDMDL
MODEL 18
REMARK VINA RESULT:    -4.064      3.113      4.332
REMARK INTER + INTRA:          -4.539
REMARK INTER:                  -4.539
REMARK INTRA:                   0.000
REMARK UNBOUND:                 0.000
REMARK  Name = RIP
REMARK  4 active torsions:
REMARK  status: ('A' for Active; 'I' for Inactive)
REMARK    1  A    between atoms: C_1  and  O_6
REMARK    2  A    between atoms: C_2  and  O_7
REMARK    3  A    between atoms: C_3  and  O_8
REMARK    4  A    between atoms: C_4  and  O_9
REMARK                            x       y       z     vdW  Elec       q    Type
REMARK                         _______ _______ _______ _____ _____    ______ ____
ROOT
ATOM      1  C   UNL     1      59.032  28.316   6.560  0.00  0.00    +0.279 C 
ATOM      2  C   UNL     1      59.969  29.507   6.921  0.00  0.00    +0.201 C 
ATOM      3  C   UNL     1      60.661  29.291   8.280  0.00  0.00    +0.178 C 
ATOM      4  C   UNL     1      59.649  28.710   9.275  0.00  0.00    +0.171 C 
ATOM      5  C   UNL     1      59.032  27.397   8.724  0.00  0.00    +0.197 C 
ATOM      6  O   UNL     1      59.314  27.171   7.350  0.00  0.00    -0.346 OA
ENDROOT
BRANCH   1   7
ATOM      7  O   UNL     1      57.679  28.680   6.690  0.00  0.00    -0.365 OA
ATOM      8  H   UNL     1      57.290  28.094   7.390  0.00  0.00    +0.213 HD
ENDBRANCH   1   7
BRANCH   2   9
ATOM      9  O   UNL     1      60.943  29.689   5.924  0.00  0.00    -0.384 OA
ATOM     10  H   UNL     1      61.827  29.608   6.371  0.00  0.00    +0.210 HD
ENDBRANCH   2   9
BRANCH   3  11
ATOM     11  O   UNL     1      61.754  28.417   8.127  0.00  0.00    -0.386 OA
ATOM     12  H   UNL     1      61.685  27.739   8.849  0.00  0.00    +0.210 HD
ENDBRANCH   3  11
BRANCH   4  13
ATOM     13  O   UNL     1      60.270  28.486  10.513  0.00  0.00    -0.387 OA
ATOM     14  H   UNL     1      60.713  29.338  10.768  0.00  0.00    +0.210 HD
ENDBRANCH   4  13
TORSDOF 4
ENDMDL
MODEL 19
REMARK VINA RESULT:    -4.054      1.886      3.620
REMARK INTER + INTRA:          -4.527
REMARK INTER:                  -4.527
REMARK INTRA:                   0.000
REMARK UNBOUND:                 0.000
REMARK  Name = RIP
REMARK  4 active torsions:
REMARK  status: ('A' for Active; 'I' for Inactive)
REMARK    1  A    between atoms: C_1  and  O_6
REMARK    2  A    between atoms: C_2  and  O_7
REMARK    3  A    between atoms: C_3  and  O_8
REMARK    4  A    between atoms: C_4  and  O_9
REMARK                            x       y       z     vdW  Elec       q    Type
REMARK                         _______ _______ _______ _____ _____    ______ ____
ROOT
ATOM      1  C   UNL     1      58.900  27.124   6.160  0.00  0.00    +0.279 C 
ATOM      2  C   UNL     1      60.206  27.805   5.653  0.00  0.00    +0.201 C 
ATOM      3  C   UNL     1      61.174  28.107   6.812  0.00  0.00    +0.178 C 
ATOM      4  C   UNL     1      60.377  28.644   8.008  0.00  0.00    +0.171 C 
ATOM      5  C   UNL     1      59.271  27.638   8.424  0.00  0.00    +0.197 C 
ATOM      6  O   UNL     1      59.056  26.606   7.472  0.00  0.00    -0.346 OA
ENDROOT
BRANCH   1   7
ATOM      7  O   UNL     1      57.814  28.017   6.113  0.00  0.00    -0.365 OA
ATOM      8  H   UNL     1      57.539  28.085   5.162  0.00  0.00    +0.213 HD
ENDBRANCH   1   7
BRANCH   2   9
ATOM      9  O   UNL     1      60.852  26.992   4.706  0.00  0.00    -0.384 OA
ATOM     10  H   UNL     1      61.804  26.932   4.982  0.00  0.00    +0.210 HD
ENDBRANCH   2   9
BRANCH   3  11
ATOM     11  O   UNL     1      61.869  26.937   7.173  0.00  0.00    -0.386 OA
ATOM     12  H   UNL     1      62.798  27.208   7.394  0.00  0.00    +0.210 HD
ENDBRANCH   3  11
BRANCH   4  13
ATOM     13  O   UNL     1      61.243  28.902   9.083  0.00  0.00    -0.387 OA
ATOM     14  H   UNL     1      62.053  29.329   8.699  0.00  0.00    +0.210 HD
ENDBRANCH   4  13
TORSDOF 4
ENDMDL
MODEL 20
REMARK VINA RESULT:    -4.043      1.758      3.855
REMARK INTER + INTRA:          -4.516
REMARK INTER:                  -4.516
REMARK INTRA:                   0.000
REMARK UNBOUND:                 0.000
REMARK  Name = RIP
REMARK  4 active torsions:
REMARK  status: ('A' for Active; 'I' for Inactive)
REMARK    1  A    between atoms: C_1  and  O_6
REMARK    2  A    between atoms: C_2  and  O_7
REMARK    3  A    between atoms: C_3  and  O_8
REMARK    4  A    between atoms: C_4  and  O_9
REMARK                            x       y       z     vdW  Elec       q    Type
REMARK                         _______ _______ _______ _____ _____    ______ ____
ROOT
ATOM      1  C   UNL     1      59.294  28.790   7.554  0.00  0.00    +0.279 C 
ATOM      2  C   UNL     1      60.644  28.270   8.133  0.00  0.00    +0.201 C 
ATOM      3  C   UNL     1      61.606  27.826   7.015  0.00  0.00    +0.178 C 
ATOM      4  C   UNL     1      60.818  27.056   5.948  0.00  0.00    +0.171 C 
ATOM      5  C   UNL     1      59.652  27.920   5.399  0.00  0.00    +0.197 C 
ATOM      6  O   UNL     1      59.399  29.086   6.170  0.00  0.00    -0.346 OA
ENDROOT
BRANCH   1   7
ATOM      7  O   UNL     1      58.259  27.865   7.779  0.00  0.00    -0.365 OA
ATOM      8  H   UNL     1      57.482  28.380   8.119  0.00  0.00    +0.213 HD
ENDBRANCH   1   7
BRANCH   2   9
ATOM      9  O   UNL     1      61.262  29.263   8.913  0.00  0.00    -0.384 OA
ATOM     10  H   UNL     1      61.626  28.808   9.718  0.00  0.00    +0.210 HD
ENDBRANCH   2   9
BRANCH   3  11
ATOM     11  O   UNL     1      62.230  28.952   6.445  0.00  0.00    -0.386 OA
ATOM     12  H   UNL     1      63.153  28.987   6.809  0.00  0.00    +0.210 HD
ENDBRANCH   3  11
BRANCH   4  13
ATOM     13  O   UNL     1      61.678  26.664   4.909  0.00  0.00    -0.387 OA
ATOM     14  H   UNL     1      62.092  27.493   4.555  0.00  0.00    +0.210 HD
ENDBRANCH   4  13
TORSDOF 4
ENDMDL
