MODEL 1
REMARK VINA RESULT:    -5.169      0.000      0.000
REMARK INTER + INTRA:          -6.561
REMARK INTER:                  -6.378
REMARK INTRA:                  -0.183
REMARK UNBOUND:                -0.183
REMARK  Name = PHE
REMARK  5 active torsions:
REMARK  status: ('A' for Active; 'I' for Inactive)
REMARK    1  A    between atoms: N_1  and  CA_2
REMARK    2  A    between atoms: CA_2  and  C_3
REMARK    3  A    between atoms: CA_2  and  CB_5
REMARK    4  A    between atoms: C_3  and  OXT_12
REMARK    5  A    between atoms: CB_5  and  CG_6
REMARK                            x       y       z     vdW  Elec       q    Type
REMARK                         _______ _______ _______ _____ _____    ______ ____
ROOT
ATOM      1  CA  PHE A   1      35.584  -0.555   5.746  0.00  0.00    +0.165 C 
ENDROOT
BRANCH   1   2
ATOM      2  N   PHE A   1      35.436  -1.999   5.949  0.00  0.00    -0.318 NA
ATOM      3  H1  PHE A   1      35.786  -2.258   6.901  0.00  0.00    +0.119 HD
ATOM      4  H2  PHE A   1      36.031  -2.500   5.249  0.00  0.00    +0.119 HD
ENDBRANCH   1   2
BRANCH   1   5
ATOM      5  C   PHE A   1      35.170  -0.167   4.351  0.00  0.00    +0.322 C 
ATOM      6  O   PHE A   1      34.968  -1.052   3.475  0.00  0.00    -0.249 OA
BRANCH   5   7
ATOM      7  OXT PHE A   1      35.011   1.177   4.027  0.00  0.00    -0.480 OA
ATOM      8  HXT PHE A   1      35.665   1.874   4.362  0.00  0.00    +0.295 HD
ENDBRANCH   5   7
ENDBRANCH   1   5
BRANCH   1   9
ATOM      9  CB  PHE A   1      37.033  -0.114   6.019  0.00  0.00    +0.065 C 
BRANCH   9  10
ATOM     10  CG  PHE A   1      37.106   0.835   7.189  0.00  0.00    -0.045 A 
ATOM     11  CD1 PHE A   1      38.003   1.917   7.167  0.00  0.00    +0.004 A 
ATOM     12  CD2 PHE A   1      36.246   0.675   8.289  0.00  0.00    +0.004 A 
ATOM     13  CE1 PHE A   1      38.051   2.813   8.240  0.00  0.00    +0.000 A 
ATOM     14  CE2 PHE A   1      36.299   1.574   9.360  0.00  0.00    +0.000 A 
ATOM     15  CZ  PHE A   1      37.201   2.641   9.335  0.00  0.00    +0.000 A 
ENDBRANCH   9  10
ENDBRANCH   1   9
TORSDOF 5
ENDMDL
MODEL 2
REMARK VINA RESULT:    -5.135      0.178      1.410
REMARK INTER + INTRA:          -6.519
REMARK INTER:                  -6.350
REMARK INTRA:                  -0.169
REMARK UNBOUND:                -0.183
REMARK  Name = PHE
REMARK  5 active torsions:
REMARK  status: ('A' for Active; 'I' for Inactive)
REMARK    1  A    between atoms: N_1  and  CA_2
REMARK    2  A    between atoms: CA_2  and  C_3
REMARK    3  A    between atoms: CA_2  and  CB_5
REMARK    4  A    between atoms: C_3  and  OXT_12
REMARK    5  A    between atoms: CB_5  and  CG_6
REMARK                            x       y       z     vdW  Elec       q    Type
REMARK                         _______ _______ _______ _____ _____    ______ ____
ROOT
ATOM      1  CA  PHE A   1      35.572  -0.624   5.663  0.00  0.00    +0.165 C 
ENDROOT
BRANCH   1   2
ATOM      2  N   PHE A   1      35.465  -2.059   5.940  0.00  0.00    -0.318 NA
ATOM      3  H1  PHE A   1      35.612  -2.599   5.056  0.00  0.00    +0.119 HD
ATOM      4  H2  PHE A   1      34.495  -2.265   6.277  0.00  0.00    +0.119 HD
ENDBRANCH   1   2
BRANCH   1   5
ATOM      5  C   PHE A   1      35.111  -0.314   4.264  0.00  0.00    +0.322 C 
ATOM      6  O   PHE A   1      35.028  -1.230   3.401  0.00  0.00    -0.249 OA
BRANCH   5   7
ATOM      7  OXT PHE A   1      34.776   0.992   3.920  0.00  0.00    -0.480 OA
ATOM      8  HXT PHE A   1      35.481   1.640   3.591  0.00  0.00    +0.295 HD
ENDBRANCH   5   7
ENDBRANCH   1   5
BRANCH   1   9
ATOM      9  CB  PHE A   1      37.016  -0.136   5.874  0.00  0.00    +0.065 C 
BRANCH   9  10
ATOM     10  CG  PHE A   1      37.106   0.833   7.025  0.00  0.00    -0.045 A 
ATOM     11  CD1 PHE A   1      36.290   0.664   8.158  0.00  0.00    +0.004 A 
ATOM     12  CD2 PHE A   1      38.035   1.886   6.999  0.00  0.00    +0.004 A 
ATOM     13  CE1 PHE A   1      36.392   1.547   9.237  0.00  0.00    +0.000 A 
ATOM     14  CE2 PHE A   1      38.134   2.767   8.081  0.00  0.00    +0.000 A 
ATOM     15  CZ  PHE A   1      37.312   2.598   9.198  0.00  0.00    +0.000 A 
ENDBRANCH   9  10
ENDBRANCH   1   9
TORSDOF 5
ENDMDL
MODEL 3
REMARK VINA RESULT:    -4.997      3.670      5.006
REMARK INTER + INTRA:          -6.348
REMARK INTER:                  -6.140
REMARK INTRA:                  -0.208
REMARK UNBOUND:                -0.183
REMARK  Name = PHE
REMARK  5 active torsions:
REMARK  status: ('A' for Active; 'I' for Inactive)
REMARK    1  A    between atoms: N_1  and  CA_2
REMARK    2  A    between atoms: CA_2  and  C_3
REMARK    3  A    between atoms: CA_2  and  CB_5
REMARK    4  A    between atoms: C_3  and  OXT_12
REMARK    5  A    between atoms: CB_5  and  CG_6
REMARK                            x       y       z     vdW  Elec       q    Type
REMARK                         _______ _______ _______ _____ _____    ______ ____
ROOT
ATOM      1  CA  PHE A   1      37.169   2.033   8.851  0.00  0.00    +0.165 C 
ENDROOT
BRANCH   1   2
ATOM      2  N   PHE A   1      37.382   3.158   9.766  0.00  0.00    -0.318 NA
ATOM      3  H1  PHE A   1      37.297   4.059   9.240  0.00  0.00    +0.119 HD
ATOM      4  H2  PHE A   1      38.358   3.105  10.142  0.00  0.00    +0.119 HD
ENDBRANCH   1   2
BRANCH   1   5
ATOM      5  C   PHE A   1      37.011   0.745   9.614  0.00  0.00    +0.322 C 
ATOM      6  O   PHE A   1      36.922   0.756  10.872  0.00  0.00    -0.249 OA
BRANCH   5   7
ATOM      7  OXT PHE A   1      36.965  -0.464   8.927  0.00  0.00    -0.480 OA
ATOM      8  HXT PHE A   1      36.268  -0.630   8.212  0.00  0.00    +0.295 HD
ENDBRANCH   5   7
ENDBRANCH   1   5
BRANCH   1   9
ATOM      9  CB  PHE A   1      38.329   1.924   7.845  0.00  0.00    +0.065 C 
BRANCH   9  10
ATOM     10  CG  PHE A   1      37.856   2.162   6.433  0.00  0.00    -0.045 A 
ATOM     11  CD1 PHE A   1      36.765   1.438   5.921  0.00  0.00    +0.004 A 
ATOM     12  CD2 PHE A   1      38.468   3.141   5.633  0.00  0.00    +0.004 A 
ATOM     13  CE1 PHE A   1      36.308   1.678   4.621  0.00  0.00    +0.000 A 
ATOM     14  CE2 PHE A   1      38.008   3.377   4.333  0.00  0.00    +0.000 A 
ATOM     15  CZ  PHE A   1      36.930   2.646   3.828  0.00  0.00    +0.000 A 
ENDBRANCH   9  10
ENDBRANCH   1   9
TORSDOF 5
ENDMDL
MODEL 4
REMARK VINA RESULT:    -4.956      3.456      4.828
REMARK INTER + INTRA:          -6.298
REMARK INTER:                  -6.119
REMARK INTRA:                  -0.179
REMARK UNBOUND:                -0.183
REMARK  Name = PHE
REMARK  5 active torsions:
REMARK  status: ('A' for Active; 'I' for Inactive)
REMARK    1  A    between atoms: N_1  and  CA_2
REMARK    2  A    between atoms: CA_2  and  C_3
REMARK    3  A    between atoms: CA_2  and  CB_5
REMARK    4  A    between atoms: C_3  and  OXT_12
REMARK    5  A    between atoms: CB_5  and  CG_6
REMARK                            x       y       z     vdW  Elec       q    Type
REMARK                         _______ _______ _______ _____ _____    ______ ____
ROOT
ATOM      1  CA  PHE A   1      37.244   0.951   8.978  0.00  0.00    +0.165 C 
ENDROOT
BRANCH   1   2
ATOM      2  N   PHE A   1      37.186  -0.511   8.886  0.00  0.00    -0.318 NA
ATOM      3  H1  PHE A   1      37.042  -0.917   9.840  0.00  0.00    +0.119 HD
ATOM      4  H2  PHE A   1      38.105  -0.862   8.530  0.00  0.00    +0.119 HD
ENDBRANCH   1   2
BRANCH   1   5
ATOM      5  C   PHE A   1      36.630   1.430  10.266  0.00  0.00    +0.322 C 
ATOM      6  O   PHE A   1      35.821   2.397  10.267  0.00  0.00    -0.249 OA
BRANCH   5   7
ATOM      7  OXT PHE A   1      36.959   0.802  11.464  0.00  0.00    -0.480 OA
ATOM      8  HXT PHE A   1      36.306   0.176  11.919  0.00  0.00    +0.295 HD
ENDBRANCH   5   7
ENDBRANCH   1   5
BRANCH   1   9
ATOM      9  CB  PHE A   1      36.541   1.599   7.772  0.00  0.00    +0.065 C 
BRANCH   9  10
ATOM     10  CG  PHE A   1      37.511   1.862   6.648  0.00  0.00    -0.045 A 
ATOM     11  CD1 PHE A   1      37.241   1.384   5.354  0.00  0.00    +0.004 A 
ATOM     12  CD2 PHE A   1      38.668   2.627   6.871  0.00  0.00    +0.004 A 
ATOM     13  CE1 PHE A   1      38.126   1.651   4.305  0.00  0.00    +0.000 A 
ATOM     14  CE2 PHE A   1      39.551   2.892   5.819  0.00  0.00    +0.000 A 
ATOM     15  CZ  PHE A   1      39.281   2.403   4.538  0.00  0.00    +0.000 A 
ENDBRANCH   9  10
ENDBRANCH   1   9
TORSDOF 5
ENDMDL
MODEL 5
REMARK VINA RESULT:    -4.922      1.823      2.589
REMARK INTER + INTRA:          -6.255
REMARK INTER:                  -6.067
REMARK INTRA:                  -0.188
REMARK UNBOUND:                -0.183
REMARK  Name = PHE
REMARK  5 active torsions:
REMARK  status: ('A' for Active; 'I' for Inactive)
REMARK    1  A    between atoms: N_1  and  CA_2
REMARK    2  A    between atoms: CA_2  and  C_3
REMARK    3  A    between atoms: CA_2  and  CB_5
REMARK    4  A    between atoms: C_3  and  OXT_12
REMARK    5  A    between atoms: CB_5  and  CG_6
REMARK                            x       y       z     vdW  Elec       q    Type
REMARK                         _______ _______ _______ _____ _____    ______ ____
ROOT
ATOM      1  CA  PHE A   1      35.866  -1.051   5.026  0.00  0.00    +0.165 C 
ENDROOT
BRANCH   1   2
ATOM      2  N   PHE A   1      34.735  -0.512   4.266  0.00  0.00    -0.318 NA
ATOM      3  H1  PHE A   1      35.088   0.138   3.525  0.00  0.00    +0.119 HD
ATOM      4  H2  PHE A   1      34.131   0.048   4.913  0.00  0.00    +0.119 HD
ENDBRANCH   1   2
BRANCH   1   5
ATOM      5  C   PHE A   1      35.896  -2.554   4.946  0.00  0.00    +0.322 C 
ATOM      6  O   PHE A   1      35.926  -3.133   3.826  0.00  0.00    -0.249 OA
BRANCH   5   7
ATOM      7  OXT PHE A   1      35.888  -3.308   6.116  0.00  0.00    -0.480 OA
ATOM      8  HXT PHE A   1      36.010  -2.868   7.019  0.00  0.00    +0.295 HD
ENDBRANCH   5   7
ENDBRANCH   1   5
BRANCH   1   9
ATOM      9  CB  PHE A   1      35.802  -0.591   6.494  0.00  0.00    +0.065 C 
BRANCH   9  10
ATOM     10  CG  PHE A   1      36.800   0.506   6.769  0.00  0.00    -0.045 A 
ATOM     11  CD1 PHE A   1      36.723   1.250   7.959  0.00  0.00    +0.004 A 
ATOM     12  CD2 PHE A   1      37.842   0.763   5.863  0.00  0.00    +0.004 A 
ATOM     13  CE1 PHE A   1      37.664   2.249   8.227  0.00  0.00    +0.000 A 
ATOM     14  CE2 PHE A   1      38.782   1.763   6.135  0.00  0.00    +0.000 A 
ATOM     15  CZ  PHE A   1      38.692   2.506   7.316  0.00  0.00    +0.000 A 
ENDBRANCH   9  10
ENDBRANCH   1   9
TORSDOF 5
ENDMDL
MODEL 6
REMARK VINA RESULT:    -4.902      3.269      5.067
REMARK INTER + INTRA:          -6.232
REMARK INTER:                  -6.020
REMARK INTRA:                  -0.212
REMARK UNBOUND:                -0.183
REMARK  Name = PHE
REMARK  5 active torsions:
REMARK  status: ('A' for Active; 'I' for Inactive)
REMARK    1  A    between atoms: N_1  and  CA_2
REMARK    2  A    between atoms: CA_2  and  C_3
REMARK    3  A    between atoms: CA_2  and  CB_5
REMARK    4  A    between atoms: C_3  and  OXT_12
REMARK    5  A    between atoms: CB_5  and  CG_6
REMARK                            x       y       z     vdW  Elec       q    Type
REMARK                         _______ _______ _______ _____ _____    ______ ____
ROOT
ATOM      1  CA  PHE A   1      37.049   1.964   8.278  0.00  0.00    +0.165 C 
ENDROOT
BRANCH   1   2
ATOM      2  N   PHE A   1      38.068   2.999   8.475  0.00  0.00    -0.318 NA
ATOM      3  H1  PHE A   1      38.172   3.561   7.599  0.00  0.00    +0.119 HD
ATOM      4  H2  PHE A   1      38.988   2.534   8.661  0.00  0.00    +0.119 HD
ENDBRANCH   1   2
BRANCH   1   5
ATOM      5  C   PHE A   1      36.518   1.477   9.600  0.00  0.00    +0.322 C 
ATOM      6  O   PHE A   1      36.722   2.141  10.653  0.00  0.00    -0.249 OA
BRANCH   5   7
ATOM      7  OXT PHE A   1      35.800   0.287   9.660  0.00  0.00    -0.480 OA
ATOM      8  HXT PHE A   1      36.252  -0.602   9.481  0.00  0.00    +0.295 HD
ENDBRANCH   5   7
ENDBRANCH   1   5
BRANCH   1   9
ATOM      9  CB  PHE A   1      37.619   0.790   7.461  0.00  0.00    +0.065 C 
BRANCH   9  10
ATOM     10  CG  PHE A   1      36.731   0.454   6.290  0.00  0.00    -0.045 A 
ATOM     11  CD1 PHE A   1      36.140  -0.817   6.191  0.00  0.00    +0.004 A 
ATOM     12  CD2 PHE A   1      36.447   1.422   5.311  0.00  0.00    +0.004 A 
ATOM     13  CE1 PHE A   1      35.295  -1.120   5.120  0.00  0.00    +0.000 A 
ATOM     14  CE2 PHE A   1      35.601   1.115   4.241  0.00  0.00    +0.000 A 
ATOM     15  CZ  PHE A   1      35.027  -0.155   4.145  0.00  0.00    +0.000 A 
ENDBRANCH   9  10
ENDBRANCH   1   9
TORSDOF 5
ENDMDL
MODEL 7
REMARK VINA RESULT:    -4.841      1.353      2.031
REMARK INTER + INTRA:          -6.155
REMARK INTER:                  -5.954
REMARK INTRA:                  -0.202
REMARK UNBOUND:                -0.183
REMARK  Name = PHE
REMARK  5 active torsions:
REMARK  status: ('A' for Active; 'I' for Inactive)
REMARK    1  A    between atoms: N_1  and  CA_2
REMARK    2  A    between atoms: CA_2  and  C_3
REMARK    3  A    between atoms: CA_2  and  CB_5
REMARK    4  A    between atoms: C_3  and  OXT_12
REMARK    5  A    between atoms: CB_5  and  CG_6
REMARK                            x       y       z     vdW  Elec       q    Type
REMARK                         _______ _______ _______ _____ _____    ______ ____
ROOT
ATOM      1  CA  PHE A   1      36.786   0.440   5.119  0.00  0.00    +0.165 C 
ENDROOT
BRANCH   1   2
ATOM      2  N   PHE A   1      37.460  -0.552   4.277  0.00  0.00    -0.318 NA
ATOM      3  H1  PHE A   1      38.063  -0.065   3.574  0.00  0.00    +0.119 HD
ATOM      4  H2  PHE A   1      36.736  -1.092   3.749  0.00  0.00    +0.119 HD
ENDBRANCH   1   2
BRANCH   1   5
ATOM      5  C   PHE A   1      35.894   1.326   4.291  0.00  0.00    +0.322 C 
ATOM      6  O   PHE A   1      34.793   0.895   3.853  0.00  0.00    -0.249 OA
BRANCH   5   7
ATOM      7  OXT PHE A   1      36.290   2.630   4.004  0.00  0.00    -0.480 OA
ATOM      8  HXT PHE A   1      36.638   2.877   3.086  0.00  0.00    +0.295 HD
ENDBRANCH   5   7
ENDBRANCH   1   5
BRANCH   1   9
ATOM      9  CB  PHE A   1      37.814   1.284   5.894  0.00  0.00    +0.065 C 
BRANCH   9  10
ATOM     10  CG  PHE A   1      37.363   1.533   7.311  0.00  0.00    -0.045 A 
ATOM     11  CD1 PHE A   1      36.450   0.660   7.926  0.00  0.00    +0.004 A 
ATOM     12  CD2 PHE A   1      37.886   2.611   8.045  0.00  0.00    +0.004 A 
ATOM     13  CE1 PHE A   1      36.052   0.875   9.250  0.00  0.00    +0.000 A 
ATOM     14  CE2 PHE A   1      37.486   2.822   9.368  0.00  0.00    +0.000 A 
ATOM     15  CZ  PHE A   1      36.569   1.956   9.969  0.00  0.00    +0.000 A 
ENDBRANCH   9  10
ENDBRANCH   1   9
TORSDOF 5
ENDMDL
MODEL 8
REMARK VINA RESULT:    -4.711      3.496      4.486
REMARK INTER + INTRA:          -5.996
REMARK INTER:                  -5.796
REMARK INTRA:                  -0.199
REMARK UNBOUND:                -0.183
REMARK  Name = PHE
REMARK  5 active torsions:
REMARK  status: ('A' for Active; 'I' for Inactive)
REMARK    1  A    between atoms: N_1  and  CA_2
REMARK    2  A    between atoms: CA_2  and  C_3
REMARK    3  A    between atoms: CA_2  and  CB_5
REMARK    4  A    between atoms: C_3  and  OXT_12
REMARK    5  A    between atoms: CB_5  and  CG_6
REMARK                            x       y       z     vdW  Elec       q    Type
REMARK                         _______ _______ _______ _____ _____    ______ ____
ROOT
ATOM      1  CA  PHE A   1      37.091   1.310  10.339  0.00  0.00    +0.165 C 
ENDROOT
BRANCH   1   2
ATOM      2  N   PHE A   1      37.356   0.763  11.672  0.00  0.00    -0.318 NA
ATOM      3  H1  PHE A   1      36.452   0.504  12.132  0.00  0.00    +0.119 HD
ATOM      4  H2  PHE A   1      37.805   1.505  12.258  0.00  0.00    +0.119 HD
ENDBRANCH   1   2
BRANCH   1   5
ATOM      5  C   PHE A   1      35.617   1.548  10.143  0.00  0.00    +0.322 C 
ATOM      6  O   PHE A   1      34.818   0.575  10.065  0.00  0.00    -0.249 OA
BRANCH   5   7
ATOM      7  OXT PHE A   1      35.134   2.849  10.044  0.00  0.00    -0.480 OA
ATOM      8  HXT PHE A   1      35.541   3.506   9.390  0.00  0.00    +0.295 HD
ENDBRANCH   5   7
ENDBRANCH   1   5
BRANCH   1   9
ATOM      9  CB  PHE A   1      37.635   0.371   9.248  0.00  0.00    +0.065 C 
BRANCH   9  10
ATOM     10  CG  PHE A   1      37.632   1.040   7.897  0.00  0.00    -0.045 A 
ATOM     11  CD1 PHE A   1      38.557   2.058   7.610  0.00  0.00    +0.004 A 
ATOM     12  CD2 PHE A   1      36.738   0.621   6.897  0.00  0.00    +0.004 A 
ATOM     13  CE1 PHE A   1      38.573   2.660   6.348  0.00  0.00    +0.000 A 
ATOM     14  CE2 PHE A   1      36.758   1.226   5.636  0.00  0.00    +0.000 A 
ATOM     15  CZ  PHE A   1      37.673   2.245   5.362  0.00  0.00    +0.000 A 
ENDBRANCH   9  10
ENDBRANCH   1   9
TORSDOF 5
ENDMDL
MODEL 9
REMARK VINA RESULT:    -4.672      2.062      2.217
REMARK INTER + INTRA:          -5.947
REMARK INTER:                  -5.731
REMARK INTRA:                  -0.216
REMARK UNBOUND:                -0.183
REMARK  Name = PHE
REMARK  5 active torsions:
REMARK  status: ('A' for Active; 'I' for Inactive)
REMARK    1  A    between atoms: N_1  and  CA_2
REMARK    2  A    between atoms: CA_2  and  C_3
REMARK    3  A    between atoms: CA_2  and  CB_5
REMARK    4  A    between atoms: C_3  and  OXT_12
REMARK    5  A    between atoms: CB_5  and  CG_6
REMARK                            x       y       z     vdW  Elec       q    Type
REMARK                         _______ _______ _______ _____ _____    ______ ____
ROOT
ATOM      1  CA  PHE A   1      36.729   1.362   5.027  0.00  0.00    +0.165 C 
ENDROOT
BRANCH   1   2
ATOM      2  N   PHE A   1      35.458   1.477   4.306  0.00  0.00    -0.318 NA
ATOM      3  H1  PHE A   1      35.643   1.730   3.307  0.00  0.00    +0.119 HD
ATOM      4  H2  PHE A   1      34.900   2.255   4.729  0.00  0.00    +0.119 HD
ENDBRANCH   1   2
BRANCH   1   5
ATOM      5  C   PHE A   1      37.813   0.845   4.120  0.00  0.00    +0.322 C 
ATOM      6  O   PHE A   1      37.655   0.848   2.869  0.00  0.00    -0.249 OA
BRANCH   5   7
ATOM      7  OXT PHE A   1      38.997   0.357   4.666  0.00  0.00    -0.480 OA
ATOM      8  HXT PHE A   1      38.989  -0.191   5.518  0.00  0.00    +0.295 HD
ENDBRANCH   5   7
ENDBRANCH   1   5
BRANCH   1   9
ATOM      9  CB  PHE A   1      36.574   0.448   6.257  0.00  0.00    +0.065 C 
BRANCH   9  10
ATOM     10  CG  PHE A   1      36.819   1.206   7.537  0.00  0.00    -0.045 A 
ATOM     11  CD1 PHE A   1      37.702   2.299   7.554  0.00  0.00    +0.004 A 
ATOM     12  CD2 PHE A   1      36.134   0.856   8.713  0.00  0.00    +0.004 A 
ATOM     13  CE1 PHE A   1      37.909   3.020   8.735  0.00  0.00    +0.000 A 
ATOM     14  CE2 PHE A   1      36.344   1.579   9.892  0.00  0.00    +0.000 A 
ATOM     15  CZ  PHE A   1      37.231   2.659   9.903  0.00  0.00    +0.000 A 
ENDBRANCH   9  10
ENDBRANCH   1   9
TORSDOF 5
ENDMDL
MODEL 10
REMARK VINA RESULT:    -4.644      2.751      3.432
REMARK INTER + INTRA:          -5.913
REMARK INTER:                  -5.671
REMARK INTRA:                  -0.241
REMARK UNBOUND:                -0.183
REMARK  Name = PHE
REMARK  5 active torsions:
REMARK  status: ('A' for Active; 'I' for Inactive)
REMARK    1  A    between atoms: N_1  and  CA_2
REMARK    2  A    between atoms: CA_2  and  C_3
REMARK    3  A    between atoms: CA_2  and  CB_5
REMARK    4  A    between atoms: C_3  and  OXT_12
REMARK    5  A    between atoms: CB_5  and  CG_6
REMARK                            x       y       z     vdW  Elec       q    Type
REMARK                         _______ _______ _______ _____ _____    ______ ____
ROOT
ATOM      1  CA  PHE A   1      38.849   1.954   5.171  0.00  0.00    +0.165 C 
ENDROOT
BRANCH   1   2
ATOM      2  N   PHE A   1      39.928   2.101   4.191  0.00  0.00    -0.318 NA
ATOM      3  H1  PHE A   1      40.269   3.091   4.189  0.00  0.00    +0.119 HD
ATOM      4  H2  PHE A   1      39.547   1.899   3.237  0.00  0.00    +0.119 HD
ENDBRANCH   1   2
BRANCH   1   5
ATOM      5  C   PHE A   1      37.578   2.584   4.665  0.00  0.00    +0.322 C 
ATOM      6  O   PHE A   1      37.592   3.748   4.180  0.00  0.00    -0.249 OA
BRANCH   5   7
ATOM      7  OXT PHE A   1      36.381   1.877   4.735  0.00  0.00    -0.480 OA
ATOM      8  HXT PHE A   1      35.771   1.808   3.930  0.00  0.00    +0.295 HD
ENDBRANCH   5   7
ENDBRANCH   1   5
BRANCH   1   9
ATOM      9  CB  PHE A   1      39.254   2.571   6.522  0.00  0.00    +0.065 C 
BRANCH   9  10
ATOM     10  CG  PHE A   1      38.386   2.057   7.642  0.00  0.00    -0.045 A 
ATOM     11  CD1 PHE A   1      38.171   0.677   7.794  0.00  0.00    +0.004 A 
ATOM     12  CD2 PHE A   1      37.822   2.948   8.571  0.00  0.00    +0.004 A 
ATOM     13  CE1 PHE A   1      37.388   0.197   8.849  0.00  0.00    +0.000 A 
ATOM     14  CE2 PHE A   1      37.039   2.464   9.625  0.00  0.00    +0.000 A 
ATOM     15  CZ  PHE A   1      36.822   1.091   9.763  0.00  0.00    +0.000 A 
ENDBRANCH   9  10
ENDBRANCH   1   9
TORSDOF 5
ENDMDL
MODEL 11
REMARK VINA RESULT:    -4.621      3.063      5.069
REMARK INTER + INTRA:          -5.884
REMARK INTER:                  -5.734
REMARK INTRA:                  -0.151
REMARK UNBOUND:                -0.183
REMARK  Name = PHE
REMARK  5 active torsions:
REMARK  status: ('A' for Active; 'I' for Inactive)
REMARK    1  A    between atoms: N_1  and  CA_2
REMARK    2  A    between atoms: CA_2  and  C_3
REMARK    3  A    between atoms: CA_2  and  CB_5
REMARK    4  A    between atoms: C_3  and  OXT_12
REMARK    5  A    between atoms: CB_5  and  CG_6
REMARK                            x       y       z     vdW  Elec       q    Type
REMARK                         _______ _______ _______ _____ _____    ______ ____
ROOT
ATOM      1  CA  PHE A   1      37.207   0.975   8.227  0.00  0.00    +0.165 C 
ENDROOT
BRANCH   1   2
ATOM      2  N   PHE A   1      36.710  -0.028   9.174  0.00  0.00    -0.318 NA
ATOM      3  H1  PHE A   1      37.507  -0.400   9.741  0.00  0.00    +0.119 HD
ATOM      4  H2  PHE A   1      36.307  -0.829   8.634  0.00  0.00    +0.119 HD
ENDBRANCH   1   2
BRANCH   1   5
ATOM      5  C   PHE A   1      37.421   2.298   8.913  0.00  0.00    +0.322 C 
ATOM      6  O   PHE A   1      36.909   2.521  10.044  0.00  0.00    -0.249 OA
BRANCH   5   7
ATOM      7  OXT PHE A   1      38.185   3.282   8.294  0.00  0.00    -0.480 OA
ATOM      8  HXT PHE A   1      39.053   3.603   8.707  0.00  0.00    +0.295 HD
ENDBRANCH   5   7
ENDBRANCH   1   5
BRANCH   1   9
ATOM      9  CB  PHE A   1      36.235   1.133   7.044  0.00  0.00    +0.065 C 
BRANCH   9  10
ATOM     10  CG  PHE A   1      36.483   0.086   5.987  0.00  0.00    -0.045 A 
ATOM     11  CD1 PHE A   1      35.601  -0.998   5.845  0.00  0.00    +0.004 A 
ATOM     12  CD2 PHE A   1      37.570   0.210   5.105  0.00  0.00    +0.004 A 
ATOM     13  CE1 PHE A   1      35.815  -1.954   4.847  0.00  0.00    +0.000 A 
ATOM     14  CE2 PHE A   1      37.781  -0.749   4.108  0.00  0.00    +0.000 A 
ATOM     15  CZ  PHE A   1      36.905  -1.830   3.981  0.00  0.00    +0.000 A 
ENDBRANCH   9  10
ENDBRANCH   1   9
TORSDOF 5
ENDMDL
MODEL 12
REMARK VINA RESULT:    -4.572     11.700     12.841
REMARK INTER + INTRA:          -5.824
REMARK INTER:                  -5.622
REMARK INTRA:                  -0.202
REMARK UNBOUND:                -0.183
REMARK  Name = PHE
REMARK  5 active torsions:
REMARK  status: ('A' for Active; 'I' for Inactive)
REMARK    1  A    between atoms: N_1  and  CA_2
REMARK    2  A    between atoms: CA_2  and  C_3
REMARK    3  A    between atoms: CA_2  and  CB_5
REMARK    4  A    between atoms: C_3  and  OXT_12
REMARK    5  A    between atoms: CB_5  and  CG_6
REMARK                            x       y       z     vdW  Elec       q    Type
REMARK                         _______ _______ _______ _____ _____    ______ ____
ROOT
ATOM      1  CA  PHE A   1      28.570  -4.949  12.786  0.00  0.00    +0.165 C 
ENDROOT
BRANCH   1   2
ATOM      2  N   PHE A   1      29.739  -4.337  13.423  0.00  0.00    -0.318 NA
ATOM      3  H1  PHE A   1      30.604  -4.856  13.142  0.00  0.00    +0.119 HD
ATOM      4  H2  PHE A   1      29.642  -4.427  14.461  0.00  0.00    +0.119 HD
ENDBRANCH   1   2
BRANCH   1   5
ATOM      5  C   PHE A   1      27.373  -4.041  12.883  0.00  0.00    +0.322 C 
ATOM      6  O   PHE A   1      26.209  -4.523  12.948  0.00  0.00    -0.249 OA
BRANCH   5   7
ATOM      7  OXT PHE A   1      27.551  -2.661  12.898  0.00  0.00    -0.480 OA
ATOM      8  HXT PHE A   1      27.158  -2.078  12.170  0.00  0.00    +0.295 HD
ENDBRANCH   5   7
ENDBRANCH   1   5
BRANCH   1   9
ATOM      9  CB  PHE A   1      28.261  -6.317  13.419  0.00  0.00    +0.065 C 
BRANCH   9  10
ATOM     10  CG  PHE A   1      28.658  -7.447  12.504  0.00  0.00    -0.045 A 
ATOM     11  CD1 PHE A   1      28.292  -7.421  11.147  0.00  0.00    +0.004 A 
ATOM     12  CD2 PHE A   1      29.437  -8.513  12.986  0.00  0.00    +0.004 A 
ATOM     13  CE1 PHE A   1      28.683  -8.456  10.291  0.00  0.00    +0.000 A 
ATOM     14  CE2 PHE A   1      29.826  -9.546  12.126  0.00  0.00    +0.000 A 
ATOM     15  CZ  PHE A   1      29.449  -9.517  10.781  0.00  0.00    +0.000 A 
ENDBRANCH   9  10
ENDBRANCH   1   9
TORSDOF 5
ENDMDL
MODEL 13
REMARK VINA RESULT:    -4.546      1.800      2.126
REMARK INTER + INTRA:          -5.792
REMARK INTER:                  -5.654
REMARK INTRA:                  -0.139
REMARK UNBOUND:                -0.183
REMARK  Name = PHE
REMARK  5 active torsions:
REMARK  status: ('A' for Active; 'I' for Inactive)
REMARK    1  A    between atoms: N_1  and  CA_2
REMARK    2  A    between atoms: CA_2  and  C_3
REMARK    3  A    between atoms: CA_2  and  CB_5
REMARK    4  A    between atoms: C_3  and  OXT_12
REMARK    5  A    between atoms: CB_5  and  CG_6
REMARK                            x       y       z     vdW  Elec       q    Type
REMARK                         _______ _______ _______ _____ _____    ______ ____
ROOT
ATOM      1  CA  PHE A   1      37.910   0.652   5.167  0.00  0.00    +0.165 C 
ENDROOT
BRANCH   1   2
ATOM      2  N   PHE A   1      38.955   0.068   4.321  0.00  0.00    -0.318 NA
ATOM      3  H1  PHE A   1      39.201  -0.886   4.674  0.00  0.00    +0.119 HD
ATOM      4  H2  PHE A   1      39.815   0.661   4.392  0.00  0.00    +0.119 HD
ENDBRANCH   1   2
BRANCH   1   5
ATOM      5  C   PHE A   1      36.801   1.227   4.327  0.00  0.00    +0.322 C 
ATOM      6  O   PHE A   1      35.853   0.494   3.934  0.00  0.00    -0.249 OA
BRANCH   5   7
ATOM      7  OXT PHE A   1      36.825   2.574   3.980  0.00  0.00    -0.480 OA
ATOM      8  HXT PHE A   1      36.255   3.249   4.475  0.00  0.00    +0.295 HD
ENDBRANCH   5   7
ENDBRANCH   1   5
BRANCH   1   9
ATOM      9  CB  PHE A   1      38.501   1.731   6.092  0.00  0.00    +0.065 C 
BRANCH   9  10
ATOM     10  CG  PHE A   1      37.821   1.733   7.438  0.00  0.00    -0.045 A 
ATOM     11  CD1 PHE A   1      38.017   2.802   8.328  0.00  0.00    +0.004 A 
ATOM     12  CD2 PHE A   1      36.949   0.690   7.796  0.00  0.00    +0.004 A 
ATOM     13  CE1 PHE A   1      37.365   2.818   9.565  0.00  0.00    +0.000 A 
ATOM     14  CE2 PHE A   1      36.299   0.710   9.034  0.00  0.00    +0.000 A 
ATOM     15  CZ  PHE A   1      36.508   1.771   9.918  0.00  0.00    +0.000 A 
ENDBRANCH   9  10
ENDBRANCH   1   9
TORSDOF 5
ENDMDL
MODEL 14
REMARK VINA RESULT:    -4.514     11.516     12.801
REMARK INTER + INTRA:          -5.753
REMARK INTER:                  -5.638
REMARK INTRA:                  -0.115
REMARK UNBOUND:                -0.183
REMARK  Name = PHE
REMARK  5 active torsions:
REMARK  status: ('A' for Active; 'I' for Inactive)
REMARK    1  A    between atoms: N_1  and  CA_2
REMARK    2  A    between atoms: CA_2  and  C_3
REMARK    3  A    between atoms: CA_2  and  CB_5
REMARK    4  A    between atoms: C_3  and  OXT_12
REMARK    5  A    between atoms: CB_5  and  CG_6
REMARK                            x       y       z     vdW  Elec       q    Type
REMARK                         _______ _______ _______ _____ _____    ______ ____
ROOT
ATOM      1  CA  PHE A   1      29.261  -5.929  12.053  0.00  0.00    +0.165 C 
ENDROOT
BRANCH   1   2
ATOM      2  N   PHE A   1      30.698  -5.928  11.765  0.00  0.00    -0.318 NA
ATOM      3  H1  PHE A   1      31.093  -6.881  11.944  0.00  0.00    +0.119 HD
ATOM      4  H2  PHE A   1      31.172  -5.264  12.421  0.00  0.00    +0.119 HD
ENDBRANCH   1   2
BRANCH   1   5
ATOM      5  C   PHE A   1      28.900  -4.795  12.974  0.00  0.00    +0.322 C 
ATOM      6  O   PHE A   1      27.696  -4.448  13.118  0.00  0.00    -0.249 OA
BRANCH   5   7
ATOM      7  OXT PHE A   1      29.901  -4.124  13.670  0.00  0.00    -0.480 OA
ATOM      8  HXT PHE A   1      30.867  -4.422  13.607  0.00  0.00    +0.295 HD
ENDBRANCH   5   7
ENDBRANCH   1   5
BRANCH   1   9
ATOM      9  CB  PHE A   1      28.830  -7.275  12.661  0.00  0.00    +0.065 C 
BRANCH   9  10
ATOM     10  CG  PHE A   1      29.252  -8.432  11.790  0.00  0.00    -0.045 A 
ATOM     11  CD1 PHE A   1      30.074  -9.446  12.310  0.00  0.00    +0.004 A 
ATOM     12  CD2 PHE A   1      28.791  -8.531  10.466  0.00  0.00    +0.004 A 
ATOM     13  CE1 PHE A   1      30.443 -10.533  11.511  0.00  0.00    +0.000 A 
ATOM     14  CE2 PHE A   1      29.162  -9.619   9.671  0.00  0.00    +0.000 A 
ATOM     15  CZ  PHE A   1      29.988 -10.618  10.192  0.00  0.00    +0.000 A 
ENDBRANCH   9  10
ENDBRANCH   1   9
TORSDOF 5
ENDMDL
MODEL 15
REMARK VINA RESULT:    -4.470     11.412     12.580
REMARK INTER + INTRA:          -5.698
REMARK INTER:                  -5.488
REMARK INTRA:                  -0.211
REMARK UNBOUND:                -0.183
REMARK  Name = PHE
REMARK  5 active torsions:
REMARK  status: ('A' for Active; 'I' for Inactive)
REMARK    1  A    between atoms: N_1  and  CA_2
REMARK    2  A    between atoms: CA_2  and  C_3
REMARK    3  A    between atoms: CA_2  and  CB_5
REMARK    4  A    between atoms: C_3  and  OXT_12
REMARK    5  A    between atoms: CB_5  and  CG_6
REMARK                            x       y       z     vdW  Elec       q    Type
REMARK                         _______ _______ _______ _____ _____    ______ ____
ROOT
ATOM      1  CA  PHE A   1      28.338  -5.479   1.704  0.00  0.00    +0.165 C 
ENDROOT
BRANCH   1   2
ATOM      2  N   PHE A   1      28.629  -4.454   2.710  0.00  0.00    -0.318 NA
ATOM      3  H1  PHE A   1      29.285  -4.841   3.427  0.00  0.00    +0.119 HD
ATOM      4  H2  PHE A   1      27.739  -4.203   3.201  0.00  0.00    +0.119 HD
ENDBRANCH   1   2
BRANCH   1   5
ATOM      5  C   PHE A   1      27.026  -6.156   1.995  0.00  0.00    +0.322 C 
ATOM      6  O   PHE A   1      26.464  -6.006   3.115  0.00  0.00    -0.249 OA
BRANCH   5   7
ATOM      7  OXT PHE A   1      26.430  -6.955   1.024  0.00  0.00    -0.480 OA
ATOM      8  HXT PHE A   1      25.499  -7.329   1.158  0.00  0.00    +0.295 HD
ENDBRANCH   5   7
ENDBRANCH   1   5
BRANCH   1   9
ATOM      9  CB  PHE A   1      29.476  -6.514   1.640  0.00  0.00    +0.065 C 
BRANCH   9  10
ATOM     10  CG  PHE A   1      29.998  -6.668   0.234  0.00  0.00    -0.045 A 
ATOM     11  CD1 PHE A   1      29.501  -7.687  -0.598  0.00  0.00    +0.004 A 
ATOM     12  CD2 PHE A   1      30.951  -5.769  -0.274  0.00  0.00    +0.004 A 
ATOM     13  CE1 PHE A   1      29.965  -7.813  -1.911  0.00  0.00    +0.000 A 
ATOM     14  CE2 PHE A   1      31.412  -5.899  -1.588  0.00  0.00    +0.000 A 
ATOM     15  CZ  PHE A   1      30.921  -6.921  -2.404  0.00  0.00    +0.000 A 
ENDBRANCH   9  10
ENDBRANCH   1   9
TORSDOF 5
ENDMDL
MODEL 16
REMARK VINA RESULT:    -4.390      2.939      5.019
REMARK INTER + INTRA:          -5.599
REMARK INTER:                  -5.436
REMARK INTRA:                  -0.163
REMARK UNBOUND:                -0.183
REMARK  Name = PHE
REMARK  5 active torsions:
REMARK  status: ('A' for Active; 'I' for Inactive)
REMARK    1  A    between atoms: N_1  and  CA_2
REMARK    2  A    between atoms: CA_2  and  C_3
REMARK    3  A    between atoms: CA_2  and  CB_5
REMARK    4  A    between atoms: C_3  and  OXT_12
REMARK    5  A    between atoms: CB_5  and  CG_6
REMARK                            x       y       z     vdW  Elec       q    Type
REMARK                         _______ _______ _______ _____ _____    ______ ____
ROOT
ATOM      1  CA  PHE A   1      37.367   0.286   7.640  0.00  0.00    +0.165 C 
ENDROOT
BRANCH   1   2
ATOM      2  N   PHE A   1      36.965  -0.125   8.988  0.00  0.00    -0.318 NA
ATOM      3  H1  PHE A   1      37.304   0.577   9.685  0.00  0.00    +0.119 HD
ATOM      4  H2  PHE A   1      37.425  -1.038   9.212  0.00  0.00    +0.119 HD
ENDBRANCH   1   2
BRANCH   1   5
ATOM      5  C   PHE A   1      38.371   1.406   7.700  0.00  0.00    +0.322 C 
ATOM      6  O   PHE A   1      39.526   1.255   7.218  0.00  0.00    -0.249 OA
BRANCH   5   7
ATOM      7  OXT PHE A   1      38.022   2.615   8.295  0.00  0.00    -0.480 OA
ATOM      8  HXT PHE A   1      38.453   3.483   8.000  0.00  0.00    +0.295 HD
ENDBRANCH   5   7
ENDBRANCH   1   5
BRANCH   1   9
ATOM      9  CB  PHE A   1      36.139   0.707   6.812  0.00  0.00    +0.065 C 
BRANCH   9  10
ATOM     10  CG  PHE A   1      35.991  -0.147   5.578  0.00  0.00    -0.045 A 
ATOM     11  CD1 PHE A   1      36.052  -1.548   5.676  0.00  0.00    +0.004 A 
ATOM     12  CD2 PHE A   1      35.743   0.445   4.328  0.00  0.00    +0.004 A 
ATOM     13  CE1 PHE A   1      35.886  -2.341   4.536  0.00  0.00    +0.000 A 
ATOM     14  CE2 PHE A   1      35.579  -0.352   3.191  0.00  0.00    +0.000 A 
ATOM     15  CZ  PHE A   1      35.652  -1.743   3.295  0.00  0.00    +0.000 A 
ENDBRANCH   9  10
ENDBRANCH   1   9
TORSDOF 5
ENDMDL
MODEL 17
REMARK VINA RESULT:    -4.390     11.461     12.660
REMARK INTER + INTRA:          -5.599
REMARK INTER:                  -5.435
REMARK INTRA:                  -0.165
REMARK UNBOUND:                -0.183
REMARK  Name = PHE
REMARK  5 active torsions:
REMARK  status: ('A' for Active; 'I' for Inactive)
REMARK    1  A    between atoms: N_1  and  CA_2
REMARK    2  A    between atoms: CA_2  and  C_3
REMARK    3  A    between atoms: CA_2  and  CB_5
REMARK    4  A    between atoms: C_3  and  OXT_12
REMARK    5  A    between atoms: CB_5  and  CG_6
REMARK                            x       y       z     vdW  Elec       q    Type
REMARK                         _______ _______ _______ _____ _____    ______ ____
ROOT
ATOM      1  CA  PHE A   1      28.163  -5.629  12.214  0.00  0.00    +0.165 C 
ENDROOT
BRANCH   1   2
ATOM      2  N   PHE A   1      26.949  -5.372  11.436  0.00  0.00    -0.318 NA
ATOM      3  H1  PHE A   1      26.119  -5.362  12.074  0.00  0.00    +0.119 HD
ATOM      4  H2  PHE A   1      26.813  -6.156  10.756  0.00  0.00    +0.119 HD
ENDBRANCH   1   2
BRANCH   1   5
ATOM      5  C   PHE A   1      28.571  -4.404  12.989  0.00  0.00    +0.322 C 
ATOM      6  O   PHE A   1      27.785  -3.423  13.093  0.00  0.00    -0.249 OA
BRANCH   5   7
ATOM      7  OXT PHE A   1      29.825  -4.353  13.591  0.00  0.00    -0.480 OA
ATOM      8  HXT PHE A   1      30.623  -3.972  13.098  0.00  0.00    +0.295 HD
ENDBRANCH   5   7
ENDBRANCH   1   5
BRANCH   1   9
ATOM      9  CB  PHE A   1      29.309  -6.091  11.296  0.00  0.00    +0.065 C 
BRANCH   9  10
ATOM     10  CG  PHE A   1      29.414  -7.595  11.264  0.00  0.00    -0.045 A 
ATOM     11  CD1 PHE A   1      30.177  -8.271  12.232  0.00  0.00    +0.004 A 
ATOM     12  CD2 PHE A   1      28.714  -8.337  10.298  0.00  0.00    +0.004 A 
ATOM     13  CE1 PHE A   1      30.253  -9.668  12.219  0.00  0.00    +0.000 A 
ATOM     14  CE2 PHE A   1      28.792  -9.734  10.290  0.00  0.00    +0.000 A 
ATOM     15  CZ  PHE A   1      29.562 -10.397  11.248  0.00  0.00    +0.000 A 
ENDBRANCH   9  10
ENDBRANCH   1   9
TORSDOF 5
ENDMDL
MODEL 18
REMARK VINA RESULT:    -4.346      2.777      3.309
REMARK INTER + INTRA:          -5.546
REMARK INTER:                  -5.366
REMARK INTRA:                  -0.179
REMARK UNBOUND:                -0.183
REMARK  Name = PHE
REMARK  5 active torsions:
REMARK  status: ('A' for Active; 'I' for Inactive)
REMARK    1  A    between atoms: N_1  and  CA_2
REMARK    2  A    between atoms: CA_2  and  C_3
REMARK    3  A    between atoms: CA_2  and  CB_5
REMARK    4  A    between atoms: C_3  and  OXT_12
REMARK    5  A    between atoms: CB_5  and  CG_6
REMARK                            x       y       z     vdW  Elec       q    Type
REMARK                         _______ _______ _______ _____ _____    ______ ____
ROOT
ATOM      1  CA  PHE A   1      37.838   2.248   4.659  0.00  0.00    +0.165 C 
ENDROOT
BRANCH   1   2
ATOM      2  N   PHE A   1      36.556   2.540   4.011  0.00  0.00    -0.318 NA
ATOM      3  H1  PHE A   1      35.772   2.182   4.606  0.00  0.00    +0.119 HD
ATOM      4  H2  PHE A   1      36.516   2.030   3.099  0.00  0.00    +0.119 HD
ENDBRANCH   1   2
BRANCH   1   5
ATOM      5  C   PHE A   1      38.901   1.958   3.633  0.00  0.00    +0.322 C 
ATOM      6  O   PHE A   1      39.504   0.850   3.635  0.00  0.00    -0.249 OA
BRANCH   5   7
ATOM      7  OXT PHE A   1      39.221   2.919   2.679  0.00  0.00    -0.480 OA
ATOM      8  HXT PHE A   1      38.659   3.755   2.574  0.00  0.00    +0.295 HD
ENDBRANCH   5   7
ENDBRANCH   1   5
BRANCH   1   9
ATOM      9  CB  PHE A   1      37.696   1.067   5.636  0.00  0.00    +0.065 C 
BRANCH   9  10
ATOM     10  CG  PHE A   1      37.403   1.545   7.036  0.00  0.00    -0.045 A 
ATOM     11  CD1 PHE A   1      36.430   0.897   7.816  0.00  0.00    +0.004 A 
ATOM     12  CD2 PHE A   1      38.130   2.612   7.590  0.00  0.00    +0.004 A 
ATOM     13  CE1 PHE A   1      36.177   1.322   9.123  0.00  0.00    +0.000 A 
ATOM     14  CE2 PHE A   1      37.874   3.034   8.899  0.00  0.00    +0.000 A 
ATOM     15  CZ  PHE A   1      36.897   2.391   9.664  0.00  0.00    +0.000 A 
ENDBRANCH   9  10
ENDBRANCH   1   9
TORSDOF 5
ENDMDL
MODEL 19
REMARK VINA RESULT:    -4.280      2.425      3.359
REMARK INTER + INTRA:          -5.463
REMARK INTER:                  -5.280
REMARK INTRA:                  -0.183
REMARK UNBOUND:                -0.183
REMARK  Name = PHE
REMARK  5 active torsions:
REMARK  status: ('A' for Active; 'I' for Inactive)
REMARK    1  A    between atoms: N_1  and  CA_2
REMARK    2  A    between atoms: CA_2  and  C_3
REMARK    3  A    between atoms: CA_2  and  CB_5
REMARK    4  A    between atoms: C_3  and  OXT_12
REMARK    5  A    between atoms: CB_5  and  CG_6
REMARK                            x       y       z     vdW  Elec       q    Type
REMARK                         _______ _______ _______ _____ _____    ______ ____
ROOT
ATOM      1  CA  PHE A   1      36.097   0.040   6.045  0.00  0.00    +0.165 C 
ENDROOT
BRANCH   1   2
ATOM      2  N   PHE A   1      36.281  -0.184   7.482  0.00  0.00    -0.318 NA
ATOM      3  H1  PHE A   1      37.303  -0.226   7.703  0.00  0.00    +0.119 HD
ATOM      4  H2  PHE A   1      35.867  -1.112   7.733  0.00  0.00    +0.119 HD
ENDBRANCH   1   2
BRANCH   1   5
ATOM      5  C   PHE A   1      35.343  -1.103   5.418  0.00  0.00    +0.322 C 
ATOM      6  O   PHE A   1      34.657  -0.919   4.376  0.00  0.00    -0.249 OA
BRANCH   5   7
ATOM      7  OXT PHE A   1      35.401  -2.368   5.995  0.00  0.00    -0.480 OA
ATOM      8  HXT PHE A   1      35.215  -2.499   6.981  0.00  0.00    +0.295 HD
ENDBRANCH   5   7
ENDBRANCH   1   5
BRANCH   1   9
ATOM      9  CB  PHE A   1      37.456   0.234   5.348  0.00  0.00    +0.065 C 
BRANCH   9  10
ATOM     10  CG  PHE A   1      37.703   1.685   5.022  0.00  0.00    -0.045 A 
ATOM     11  CD1 PHE A   1      37.005   2.302   3.969  0.00  0.00    +0.004 A 
ATOM     12  CD2 PHE A   1      38.595   2.447   5.795  0.00  0.00    +0.004 A 
ATOM     13  CE1 PHE A   1      37.213   3.655   3.683  0.00  0.00    +0.000 A 
ATOM     14  CE2 PHE A   1      38.800   3.800   5.506  0.00  0.00    +0.000 A 
ATOM     15  CZ  PHE A   1      38.111   4.402   4.450  0.00  0.00    +0.000 A 
ENDBRANCH   9  10
ENDBRANCH   1   9
TORSDOF 5
ENDMDL
MODEL 20
REMARK VINA RESULT:    -4.236     12.352     13.363
REMARK INTER + INTRA:          -5.409
REMARK INTER:                  -5.214
REMARK INTRA:                  -0.195
REMARK UNBOUND:                -0.183
REMARK  Name = PHE
REMARK  5 active torsions:
REMARK  status: ('A' for Active; 'I' for Inactive)
REMARK    1  A    between atoms: N_1  and  CA_2
REMARK    2  A    between atoms: CA_2  and  C_3
REMARK    3  A    between atoms: CA_2  and  CB_5
REMARK    4  A    between atoms: C_3  and  OXT_12
REMARK    5  A    between atoms: CB_5  and  CG_6
REMARK                            x       y       z     vdW  Elec       q    Type
REMARK                         _______ _______ _______ _____ _____    ______ ____
ROOT
ATOM      1  CA  PHE A   1      29.313  -5.587  12.778  0.00  0.00    +0.165 C 
ENDROOT
BRANCH   1   2
ATOM      2  N   PHE A   1      29.497  -4.274  13.402  0.00  0.00    -0.318 NA
ATOM      3  H1  PHE A   1      29.275  -4.336  14.423  0.00  0.00    +0.119 HD
ATOM      4  H2  PHE A   1      28.820  -3.601  12.974  0.00  0.00    +0.119 HD
ENDBRANCH   1   2
BRANCH   1   5
ATOM      5  C   PHE A   1      29.950  -5.625  11.414  0.00  0.00    +0.322 C 
ATOM      6  O   PHE A   1      29.288  -6.006  10.411  0.00  0.00    -0.249 OA
BRANCH   5   7
ATOM      7  OXT PHE A   1      31.278  -5.239  11.261  0.00  0.00    -0.480 OA
ATOM      8  HXT PHE A   1      32.025  -5.760  11.702  0.00  0.00    +0.295 HD
ENDBRANCH   5   7
ENDBRANCH   1   5
BRANCH   1   9
ATOM      9  CB  PHE A   1      27.818  -5.940  12.684  0.00  0.00    +0.065 C 
BRANCH   9  10
ATOM     10  CG  PHE A   1      27.447  -7.025  13.663  0.00  0.00    -0.045 A 
ATOM     11  CD1 PHE A   1      26.125  -7.139  14.126  0.00  0.00    +0.004 A 
ATOM     12  CD2 PHE A   1      28.407  -7.961  14.085  0.00  0.00    +0.004 A 
ATOM     13  CE1 PHE A   1      25.775  -8.162  15.013  0.00  0.00    +0.000 A 
ATOM     14  CE2 PHE A   1      28.052  -8.982  14.972  0.00  0.00    +0.000 A 
ATOM     15  CZ  PHE A   1      26.738  -9.082  15.436  0.00  0.00    +0.000 A 
ENDBRANCH   9  10
ENDBRANCH   1   9
TORSDOF 5
ENDMDL
