MODEL 19
REMARK VINA RESULT:    -4.280      2.425      3.359
REMARK INTER + INTRA:          -5.463
REMARK INTER:                  -5.280
REMARK INTRA:                  -0.183
REMARK UNBOUND:                -0.183
REMARK  Name = PHE
REMARK  5 active torsions:
REMARK  status: ('A' for Active; 'I' for Inactive)
REMARK    1  A    between atoms: N_1  and  CA_2
REMARK    2  A    between atoms: CA_2  and  C_3
REMARK    3  A    between atoms: CA_2  and  CB_5
REMARK    4  A    between atoms: C_3  and  OXT_12
REMARK    5  A    between atoms: CB_5  and  CG_6
REMARK                            x       y       z     vdW  Elec       q    Type
REMARK                         _______ _______ _______ _____ _____    ______ ____
ROOT
ATOM      1  CA  PHE A   1      36.097   0.040   6.045  0.00  0.00    +0.165 C 
ENDROOT
BRANCH   1   2
ATOM      2  N   PHE A   1      36.281  -0.184   7.482  0.00  0.00    -0.318 NA
ATOM      3  H1  PHE A   1      37.303  -0.226   7.703  0.00  0.00    +0.119 HD
ATOM      4  H2  PHE A   1      35.867  -1.112   7.733  0.00  0.00    +0.119 HD
ENDBRANCH   1   2
BRANCH   1   5
ATOM      5  C   PHE A   1      35.343  -1.103   5.418  0.00  0.00    +0.322 C 
ATOM      6  O   PHE A   1      34.657  -0.919   4.376  0.00  0.00    -0.249 OA
BRANCH   5   7
ATOM      7  OXT PHE A   1      35.401  -2.368   5.995  0.00  0.00    -0.480 OA
ATOM      8  HXT PHE A   1      35.215  -2.499   6.981  0.00  0.00    +0.295 HD
ENDBRANCH   5   7
ENDBRANCH   1   5
BRANCH   1   9
ATOM      9  CB  PHE A   1      37.456   0.234   5.348  0.00  0.00    +0.065 C 
BRANCH   9  10
ATOM     10  CG  PHE A   1      37.703   1.685   5.022  0.00  0.00    -0.045 A 
ATOM     11  CD1 PHE A   1      37.005   2.302   3.969  0.00  0.00    +0.004 A 
ATOM     12  CD2 PHE A   1      38.595   2.447   5.795  0.00  0.00    +0.004 A 
ATOM     13  CE1 PHE A   1      37.213   3.655   3.683  0.00  0.00    +0.000 A 
ATOM     14  CE2 PHE A   1      38.800   3.800   5.506  0.00  0.00    +0.000 A 
ATOM     15  CZ  PHE A   1      38.111   4.402   4.450  0.00  0.00    +0.000 A 
ENDBRANCH   9  10
ENDBRANCH   1   9
TORSDOF 5
ENDMDL
