MODEL 1
REMARK VINA RESULT:    -5.169      0.000      0.000
REMARK INTER + INTRA:          -6.561
REMARK INTER:                  -6.378
REMARK INTRA:                  -0.183
REMARK UNBOUND:                -0.183
REMARK  Name = PHE
REMARK  5 active torsions:
REMARK  status: ('A' for Active; 'I' for Inactive)
REMARK    1  A    between atoms: N_1  and  CA_2
REMARK    2  A    between atoms: CA_2  and  C_3
REMARK    3  A    between atoms: CA_2  and  CB_5
REMARK    4  A    between atoms: C_3  and  OXT_12
REMARK    5  A    between atoms: CB_5  and  CG_6
REMARK                            x       y       z     vdW  Elec       q    Type
REMARK                         _______ _______ _______ _____ _____    ______ ____
ROOT
ATOM      1  CA  PHE A   1      35.584  -0.555   5.746  0.00  0.00    +0.165 C 
ENDROOT
BRANCH   1   2
ATOM      2  N   PHE A   1      35.436  -1.999   5.949  0.00  0.00    -0.318 NA
ATOM      3  H1  PHE A   1      35.786  -2.258   6.901  0.00  0.00    +0.119 HD
ATOM      4  H2  PHE A   1      36.031  -2.500   5.249  0.00  0.00    +0.119 HD
ENDBRANCH   1   2
BRANCH   1   5
ATOM      5  C   PHE A   1      35.170  -0.167   4.351  0.00  0.00    +0.322 C 
ATOM      6  O   PHE A   1      34.968  -1.052   3.475  0.00  0.00    -0.249 OA
BRANCH   5   7
ATOM      7  OXT PHE A   1      35.011   1.177   4.027  0.00  0.00    -0.480 OA
ATOM      8  HXT PHE A   1      35.665   1.874   4.362  0.00  0.00    +0.295 HD
ENDBRANCH   5   7
ENDBRANCH   1   5
BRANCH   1   9
ATOM      9  CB  PHE A   1      37.033  -0.114   6.019  0.00  0.00    +0.065 C 
BRANCH   9  10
ATOM     10  CG  PHE A   1      37.106   0.835   7.189  0.00  0.00    -0.045 A 
ATOM     11  CD1 PHE A   1      38.003   1.917   7.167  0.00  0.00    +0.004 A 
ATOM     12  CD2 PHE A   1      36.246   0.675   8.289  0.00  0.00    +0.004 A 
ATOM     13  CE1 PHE A   1      38.051   2.813   8.240  0.00  0.00    +0.000 A 
ATOM     14  CE2 PHE A   1      36.299   1.574   9.360  0.00  0.00    +0.000 A 
ATOM     15  CZ  PHE A   1      37.201   2.641   9.335  0.00  0.00    +0.000 A 
ENDBRANCH   9  10
ENDBRANCH   1   9
TORSDOF 5
ENDMDL
