MODEL 2
REMARK VINA RESULT:    -5.135      0.178      1.410
REMARK INTER + INTRA:          -6.519
REMARK INTER:                  -6.350
REMARK INTRA:                  -0.169
REMARK UNBOUND:                -0.183
REMARK  Name = PHE
REMARK  5 active torsions:
REMARK  status: ('A' for Active; 'I' for Inactive)
REMARK    1  A    between atoms: N_1  and  CA_2
REMARK    2  A    between atoms: CA_2  and  C_3
REMARK    3  A    between atoms: CA_2  and  CB_5
REMARK    4  A    between atoms: C_3  and  OXT_12
REMARK    5  A    between atoms: CB_5  and  CG_6
REMARK                            x       y       z     vdW  Elec       q    Type
REMARK                         _______ _______ _______ _____ _____    ______ ____
ROOT
ATOM      1  CA  PHE A   1      35.572  -0.624   5.663  0.00  0.00    +0.165 C 
ENDROOT
BRANCH   1   2
ATOM      2  N   PHE A   1      35.465  -2.059   5.940  0.00  0.00    -0.318 NA
ATOM      3  H1  PHE A   1      35.612  -2.599   5.056  0.00  0.00    +0.119 HD
ATOM      4  H2  PHE A   1      34.495  -2.265   6.277  0.00  0.00    +0.119 HD
ENDBRANCH   1   2
BRANCH   1   5
ATOM      5  C   PHE A   1      35.111  -0.314   4.264  0.00  0.00    +0.322 C 
ATOM      6  O   PHE A   1      35.028  -1.230   3.401  0.00  0.00    -0.249 OA
BRANCH   5   7
ATOM      7  OXT PHE A   1      34.776   0.992   3.920  0.00  0.00    -0.480 OA
ATOM      8  HXT PHE A   1      35.481   1.640   3.591  0.00  0.00    +0.295 HD
ENDBRANCH   5   7
ENDBRANCH   1   5
BRANCH   1   9
ATOM      9  CB  PHE A   1      37.016  -0.136   5.874  0.00  0.00    +0.065 C 
BRANCH   9  10
ATOM     10  CG  PHE A   1      37.106   0.833   7.025  0.00  0.00    -0.045 A 
ATOM     11  CD1 PHE A   1      36.290   0.664   8.158  0.00  0.00    +0.004 A 
ATOM     12  CD2 PHE A   1      38.035   1.886   6.999  0.00  0.00    +0.004 A 
ATOM     13  CE1 PHE A   1      36.392   1.547   9.237  0.00  0.00    +0.000 A 
ATOM     14  CE2 PHE A   1      38.134   2.767   8.081  0.00  0.00    +0.000 A 
ATOM     15  CZ  PHE A   1      37.312   2.598   9.198  0.00  0.00    +0.000 A 
ENDBRANCH   9  10
ENDBRANCH   1   9
TORSDOF 5
ENDMDL
