MODEL 3
REMARK VINA RESULT:    -4.997      3.670      5.006
REMARK INTER + INTRA:          -6.348
REMARK INTER:                  -6.140
REMARK INTRA:                  -0.208
REMARK UNBOUND:                -0.183
REMARK  Name = PHE
REMARK  5 active torsions:
REMARK  status: ('A' for Active; 'I' for Inactive)
REMARK    1  A    between atoms: N_1  and  CA_2
REMARK    2  A    between atoms: CA_2  and  C_3
REMARK    3  A    between atoms: CA_2  and  CB_5
REMARK    4  A    between atoms: C_3  and  OXT_12
REMARK    5  A    between atoms: CB_5  and  CG_6
REMARK                            x       y       z     vdW  Elec       q    Type
REMARK                         _______ _______ _______ _____ _____    ______ ____
ROOT
ATOM      1  CA  PHE A   1      37.169   2.033   8.851  0.00  0.00    +0.165 C 
ENDROOT
BRANCH   1   2
ATOM      2  N   PHE A   1      37.382   3.158   9.766  0.00  0.00    -0.318 NA
ATOM      3  H1  PHE A   1      37.297   4.059   9.240  0.00  0.00    +0.119 HD
ATOM      4  H2  PHE A   1      38.358   3.105  10.142  0.00  0.00    +0.119 HD
ENDBRANCH   1   2
BRANCH   1   5
ATOM      5  C   PHE A   1      37.011   0.745   9.614  0.00  0.00    +0.322 C 
ATOM      6  O   PHE A   1      36.922   0.756  10.872  0.00  0.00    -0.249 OA
BRANCH   5   7
ATOM      7  OXT PHE A   1      36.965  -0.464   8.927  0.00  0.00    -0.480 OA
ATOM      8  HXT PHE A   1      36.268  -0.630   8.212  0.00  0.00    +0.295 HD
ENDBRANCH   5   7
ENDBRANCH   1   5
BRANCH   1   9
ATOM      9  CB  PHE A   1      38.329   1.924   7.845  0.00  0.00    +0.065 C 
BRANCH   9  10
ATOM     10  CG  PHE A   1      37.856   2.162   6.433  0.00  0.00    -0.045 A 
ATOM     11  CD1 PHE A   1      36.765   1.438   5.921  0.00  0.00    +0.004 A 
ATOM     12  CD2 PHE A   1      38.468   3.141   5.633  0.00  0.00    +0.004 A 
ATOM     13  CE1 PHE A   1      36.308   1.678   4.621  0.00  0.00    +0.000 A 
ATOM     14  CE2 PHE A   1      38.008   3.377   4.333  0.00  0.00    +0.000 A 
ATOM     15  CZ  PHE A   1      36.930   2.646   3.828  0.00  0.00    +0.000 A 
ENDBRANCH   9  10
ENDBRANCH   1   9
TORSDOF 5
ENDMDL
