MODEL 8
REMARK VINA RESULT:    -4.711      3.496      4.486
REMARK INTER + INTRA:          -5.996
REMARK INTER:                  -5.796
REMARK INTRA:                  -0.199
REMARK UNBOUND:                -0.183
REMARK  Name = PHE
REMARK  5 active torsions:
REMARK  status: ('A' for Active; 'I' for Inactive)
REMARK    1  A    between atoms: N_1  and  CA_2
REMARK    2  A    between atoms: CA_2  and  C_3
REMARK    3  A    between atoms: CA_2  and  CB_5
REMARK    4  A    between atoms: C_3  and  OXT_12
REMARK    5  A    between atoms: CB_5  and  CG_6
REMARK                            x       y       z     vdW  Elec       q    Type
REMARK                         _______ _______ _______ _____ _____    ______ ____
ROOT
ATOM      1  CA  PHE A   1      37.091   1.310  10.339  0.00  0.00    +0.165 C 
ENDROOT
BRANCH   1   2
ATOM      2  N   PHE A   1      37.356   0.763  11.672  0.00  0.00    -0.318 NA
ATOM      3  H1  PHE A   1      36.452   0.504  12.132  0.00  0.00    +0.119 HD
ATOM      4  H2  PHE A   1      37.805   1.505  12.258  0.00  0.00    +0.119 HD
ENDBRANCH   1   2
BRANCH   1   5
ATOM      5  C   PHE A   1      35.617   1.548  10.143  0.00  0.00    +0.322 C 
ATOM      6  O   PHE A   1      34.818   0.575  10.065  0.00  0.00    -0.249 OA
BRANCH   5   7
ATOM      7  OXT PHE A   1      35.134   2.849  10.044  0.00  0.00    -0.480 OA
ATOM      8  HXT PHE A   1      35.541   3.506   9.390  0.00  0.00    +0.295 HD
ENDBRANCH   5   7
ENDBRANCH   1   5
BRANCH   1   9
ATOM      9  CB  PHE A   1      37.635   0.371   9.248  0.00  0.00    +0.065 C 
BRANCH   9  10
ATOM     10  CG  PHE A   1      37.632   1.040   7.897  0.00  0.00    -0.045 A 
ATOM     11  CD1 PHE A   1      38.557   2.058   7.610  0.00  0.00    +0.004 A 
ATOM     12  CD2 PHE A   1      36.738   0.621   6.897  0.00  0.00    +0.004 A 
ATOM     13  CE1 PHE A   1      38.573   2.660   6.348  0.00  0.00    +0.000 A 
ATOM     14  CE2 PHE A   1      36.758   1.226   5.636  0.00  0.00    +0.000 A 
ATOM     15  CZ  PHE A   1      37.673   2.245   5.362  0.00  0.00    +0.000 A 
ENDBRANCH   9  10
ENDBRANCH   1   9
TORSDOF 5
ENDMDL
