MODEL 5
REMARK VINA RESULT:    -4.922      1.823      2.589
REMARK INTER + INTRA:          -6.255
REMARK INTER:                  -6.067
REMARK INTRA:                  -0.188
REMARK UNBOUND:                -0.183
REMARK  Name = PHE
REMARK  5 active torsions:
REMARK  status: ('A' for Active; 'I' for Inactive)
REMARK    1  A    between atoms: N_1  and  CA_2
REMARK    2  A    between atoms: CA_2  and  C_3
REMARK    3  A    between atoms: CA_2  and  CB_5
REMARK    4  A    between atoms: C_3  and  OXT_12
REMARK    5  A    between atoms: CB_5  and  CG_6
REMARK                            x       y       z     vdW  Elec       q    Type
REMARK                         _______ _______ _______ _____ _____    ______ ____
ROOT
ATOM      1  CA  PHE A   1      35.866  -1.051   5.026  0.00  0.00    +0.165 C 
ENDROOT
BRANCH   1   2
ATOM      2  N   PHE A   1      34.735  -0.512   4.266  0.00  0.00    -0.318 NA
ATOM      3  H1  PHE A   1      35.088   0.138   3.525  0.00  0.00    +0.119 HD
ATOM      4  H2  PHE A   1      34.131   0.048   4.913  0.00  0.00    +0.119 HD
ENDBRANCH   1   2
BRANCH   1   5
ATOM      5  C   PHE A   1      35.896  -2.554   4.946  0.00  0.00    +0.322 C 
ATOM      6  O   PHE A   1      35.926  -3.133   3.826  0.00  0.00    -0.249 OA
BRANCH   5   7
ATOM      7  OXT PHE A   1      35.888  -3.308   6.116  0.00  0.00    -0.480 OA
ATOM      8  HXT PHE A   1      36.010  -2.868   7.019  0.00  0.00    +0.295 HD
ENDBRANCH   5   7
ENDBRANCH   1   5
BRANCH   1   9
ATOM      9  CB  PHE A   1      35.802  -0.591   6.494  0.00  0.00    +0.065 C 
BRANCH   9  10
ATOM     10  CG  PHE A   1      36.800   0.506   6.769  0.00  0.00    -0.045 A 
ATOM     11  CD1 PHE A   1      36.723   1.250   7.959  0.00  0.00    +0.004 A 
ATOM     12  CD2 PHE A   1      37.842   0.763   5.863  0.00  0.00    +0.004 A 
ATOM     13  CE1 PHE A   1      37.664   2.249   8.227  0.00  0.00    +0.000 A 
ATOM     14  CE2 PHE A   1      38.782   1.763   6.135  0.00  0.00    +0.000 A 
ATOM     15  CZ  PHE A   1      38.692   2.506   7.316  0.00  0.00    +0.000 A 
ENDBRANCH   9  10
ENDBRANCH   1   9
TORSDOF 5
ENDMDL
