MODEL 14
REMARK VINA RESULT:    -4.514     11.516     12.801
REMARK INTER + INTRA:          -5.753
REMARK INTER:                  -5.638
REMARK INTRA:                  -0.115
REMARK UNBOUND:                -0.183
REMARK  Name = PHE
REMARK  5 active torsions:
REMARK  status: ('A' for Active; 'I' for Inactive)
REMARK    1  A    between atoms: N_1  and  CA_2
REMARK    2  A    between atoms: CA_2  and  C_3
REMARK    3  A    between atoms: CA_2  and  CB_5
REMARK    4  A    between atoms: C_3  and  OXT_12
REMARK    5  A    between atoms: CB_5  and  CG_6
REMARK                            x       y       z     vdW  Elec       q    Type
REMARK                         _______ _______ _______ _____ _____    ______ ____
ROOT
ATOM      1  CA  PHE A   1      29.261  -5.929  12.053  0.00  0.00    +0.165 C 
ENDROOT
BRANCH   1   2
ATOM      2  N   PHE A   1      30.698  -5.928  11.765  0.00  0.00    -0.318 NA
ATOM      3  H1  PHE A   1      31.093  -6.881  11.944  0.00  0.00    +0.119 HD
ATOM      4  H2  PHE A   1      31.172  -5.264  12.421  0.00  0.00    +0.119 HD
ENDBRANCH   1   2
BRANCH   1   5
ATOM      5  C   PHE A   1      28.900  -4.795  12.974  0.00  0.00    +0.322 C 
ATOM      6  O   PHE A   1      27.696  -4.448  13.118  0.00  0.00    -0.249 OA
BRANCH   5   7
ATOM      7  OXT PHE A   1      29.901  -4.124  13.670  0.00  0.00    -0.480 OA
ATOM      8  HXT PHE A   1      30.867  -4.422  13.607  0.00  0.00    +0.295 HD
ENDBRANCH   5   7
ENDBRANCH   1   5
BRANCH   1   9
ATOM      9  CB  PHE A   1      28.830  -7.275  12.661  0.00  0.00    +0.065 C 
BRANCH   9  10
ATOM     10  CG  PHE A   1      29.252  -8.432  11.790  0.00  0.00    -0.045 A 
ATOM     11  CD1 PHE A   1      30.074  -9.446  12.310  0.00  0.00    +0.004 A 
ATOM     12  CD2 PHE A   1      28.791  -8.531  10.466  0.00  0.00    +0.004 A 
ATOM     13  CE1 PHE A   1      30.443 -10.533  11.511  0.00  0.00    +0.000 A 
ATOM     14  CE2 PHE A   1      29.162  -9.619   9.671  0.00  0.00    +0.000 A 
ATOM     15  CZ  PHE A   1      29.988 -10.618  10.192  0.00  0.00    +0.000 A 
ENDBRANCH   9  10
ENDBRANCH   1   9
TORSDOF 5
ENDMDL
