MODEL 7
REMARK VINA RESULT:    -4.841      1.353      2.031
REMARK INTER + INTRA:          -6.155
REMARK INTER:                  -5.954
REMARK INTRA:                  -0.202
REMARK UNBOUND:                -0.183
REMARK  Name = PHE
REMARK  5 active torsions:
REMARK  status: ('A' for Active; 'I' for Inactive)
REMARK    1  A    between atoms: N_1  and  CA_2
REMARK    2  A    between atoms: CA_2  and  C_3
REMARK    3  A    between atoms: CA_2  and  CB_5
REMARK    4  A    between atoms: C_3  and  OXT_12
REMARK    5  A    between atoms: CB_5  and  CG_6
REMARK                            x       y       z     vdW  Elec       q    Type
REMARK                         _______ _______ _______ _____ _____    ______ ____
ROOT
ATOM      1  CA  PHE A   1      36.786   0.440   5.119  0.00  0.00    +0.165 C 
ENDROOT
BRANCH   1   2
ATOM      2  N   PHE A   1      37.460  -0.552   4.277  0.00  0.00    -0.318 NA
ATOM      3  H1  PHE A   1      38.063  -0.065   3.574  0.00  0.00    +0.119 HD
ATOM      4  H2  PHE A   1      36.736  -1.092   3.749  0.00  0.00    +0.119 HD
ENDBRANCH   1   2
BRANCH   1   5
ATOM      5  C   PHE A   1      35.894   1.326   4.291  0.00  0.00    +0.322 C 
ATOM      6  O   PHE A   1      34.793   0.895   3.853  0.00  0.00    -0.249 OA
BRANCH   5   7
ATOM      7  OXT PHE A   1      36.290   2.630   4.004  0.00  0.00    -0.480 OA
ATOM      8  HXT PHE A   1      36.638   2.877   3.086  0.00  0.00    +0.295 HD
ENDBRANCH   5   7
ENDBRANCH   1   5
BRANCH   1   9
ATOM      9  CB  PHE A   1      37.814   1.284   5.894  0.00  0.00    +0.065 C 
BRANCH   9  10
ATOM     10  CG  PHE A   1      37.363   1.533   7.311  0.00  0.00    -0.045 A 
ATOM     11  CD1 PHE A   1      36.450   0.660   7.926  0.00  0.00    +0.004 A 
ATOM     12  CD2 PHE A   1      37.886   2.611   8.045  0.00  0.00    +0.004 A 
ATOM     13  CE1 PHE A   1      36.052   0.875   9.250  0.00  0.00    +0.000 A 
ATOM     14  CE2 PHE A   1      37.486   2.822   9.368  0.00  0.00    +0.000 A 
ATOM     15  CZ  PHE A   1      36.569   1.956   9.969  0.00  0.00    +0.000 A 
ENDBRANCH   9  10
ENDBRANCH   1   9
TORSDOF 5
ENDMDL
