MODEL 15
REMARK VINA RESULT:    -4.470     11.412     12.580
REMARK INTER + INTRA:          -5.698
REMARK INTER:                  -5.488
REMARK INTRA:                  -0.211
REMARK UNBOUND:                -0.183
REMARK  Name = PHE
REMARK  5 active torsions:
REMARK  status: ('A' for Active; 'I' for Inactive)
REMARK    1  A    between atoms: N_1  and  CA_2
REMARK    2  A    between atoms: CA_2  and  C_3
REMARK    3  A    between atoms: CA_2  and  CB_5
REMARK    4  A    between atoms: C_3  and  OXT_12
REMARK    5  A    between atoms: CB_5  and  CG_6
REMARK                            x       y       z     vdW  Elec       q    Type
REMARK                         _______ _______ _______ _____ _____    ______ ____
ROOT
ATOM      1  CA  PHE A   1      28.338  -5.479   1.704  0.00  0.00    +0.165 C 
ENDROOT
BRANCH   1   2
ATOM      2  N   PHE A   1      28.629  -4.454   2.710  0.00  0.00    -0.318 NA
ATOM      3  H1  PHE A   1      29.285  -4.841   3.427  0.00  0.00    +0.119 HD
ATOM      4  H2  PHE A   1      27.739  -4.203   3.201  0.00  0.00    +0.119 HD
ENDBRANCH   1   2
BRANCH   1   5
ATOM      5  C   PHE A   1      27.026  -6.156   1.995  0.00  0.00    +0.322 C 
ATOM      6  O   PHE A   1      26.464  -6.006   3.115  0.00  0.00    -0.249 OA
BRANCH   5   7
ATOM      7  OXT PHE A   1      26.430  -6.955   1.024  0.00  0.00    -0.480 OA
ATOM      8  HXT PHE A   1      25.499  -7.329   1.158  0.00  0.00    +0.295 HD
ENDBRANCH   5   7
ENDBRANCH   1   5
BRANCH   1   9
ATOM      9  CB  PHE A   1      29.476  -6.514   1.640  0.00  0.00    +0.065 C 
BRANCH   9  10
ATOM     10  CG  PHE A   1      29.998  -6.668   0.234  0.00  0.00    -0.045 A 
ATOM     11  CD1 PHE A   1      29.501  -7.687  -0.598  0.00  0.00    +0.004 A 
ATOM     12  CD2 PHE A   1      30.951  -5.769  -0.274  0.00  0.00    +0.004 A 
ATOM     13  CE1 PHE A   1      29.965  -7.813  -1.911  0.00  0.00    +0.000 A 
ATOM     14  CE2 PHE A   1      31.412  -5.899  -1.588  0.00  0.00    +0.000 A 
ATOM     15  CZ  PHE A   1      30.921  -6.921  -2.404  0.00  0.00    +0.000 A 
ENDBRANCH   9  10
ENDBRANCH   1   9
TORSDOF 5
ENDMDL
