MODEL 4
REMARK VINA RESULT:    -4.956      3.456      4.828
REMARK INTER + INTRA:          -6.298
REMARK INTER:                  -6.119
REMARK INTRA:                  -0.179
REMARK UNBOUND:                -0.183
REMARK  Name = PHE
REMARK  5 active torsions:
REMARK  status: ('A' for Active; 'I' for Inactive)
REMARK    1  A    between atoms: N_1  and  CA_2
REMARK    2  A    between atoms: CA_2  and  C_3
REMARK    3  A    between atoms: CA_2  and  CB_5
REMARK    4  A    between atoms: C_3  and  OXT_12
REMARK    5  A    between atoms: CB_5  and  CG_6
REMARK                            x       y       z     vdW  Elec       q    Type
REMARK                         _______ _______ _______ _____ _____    ______ ____
ROOT
ATOM      1  CA  PHE A   1      37.244   0.951   8.978  0.00  0.00    +0.165 C 
ENDROOT
BRANCH   1   2
ATOM      2  N   PHE A   1      37.186  -0.511   8.886  0.00  0.00    -0.318 NA
ATOM      3  H1  PHE A   1      37.042  -0.917   9.840  0.00  0.00    +0.119 HD
ATOM      4  H2  PHE A   1      38.105  -0.862   8.530  0.00  0.00    +0.119 HD
ENDBRANCH   1   2
BRANCH   1   5
ATOM      5  C   PHE A   1      36.630   1.430  10.266  0.00  0.00    +0.322 C 
ATOM      6  O   PHE A   1      35.821   2.397  10.267  0.00  0.00    -0.249 OA
BRANCH   5   7
ATOM      7  OXT PHE A   1      36.959   0.802  11.464  0.00  0.00    -0.480 OA
ATOM      8  HXT PHE A   1      36.306   0.176  11.919  0.00  0.00    +0.295 HD
ENDBRANCH   5   7
ENDBRANCH   1   5
BRANCH   1   9
ATOM      9  CB  PHE A   1      36.541   1.599   7.772  0.00  0.00    +0.065 C 
BRANCH   9  10
ATOM     10  CG  PHE A   1      37.511   1.862   6.648  0.00  0.00    -0.045 A 
ATOM     11  CD1 PHE A   1      37.241   1.384   5.354  0.00  0.00    +0.004 A 
ATOM     12  CD2 PHE A   1      38.668   2.627   6.871  0.00  0.00    +0.004 A 
ATOM     13  CE1 PHE A   1      38.126   1.651   4.305  0.00  0.00    +0.000 A 
ATOM     14  CE2 PHE A   1      39.551   2.892   5.819  0.00  0.00    +0.000 A 
ATOM     15  CZ  PHE A   1      39.281   2.403   4.538  0.00  0.00    +0.000 A 
ENDBRANCH   9  10
ENDBRANCH   1   9
TORSDOF 5
ENDMDL
