MODEL 13
REMARK VINA RESULT:    -4.546      1.800      2.126
REMARK INTER + INTRA:          -5.792
REMARK INTER:                  -5.654
REMARK INTRA:                  -0.139
REMARK UNBOUND:                -0.183
REMARK  Name = PHE
REMARK  5 active torsions:
REMARK  status: ('A' for Active; 'I' for Inactive)
REMARK    1  A    between atoms: N_1  and  CA_2
REMARK    2  A    between atoms: CA_2  and  C_3
REMARK    3  A    between atoms: CA_2  and  CB_5
REMARK    4  A    between atoms: C_3  and  OXT_12
REMARK    5  A    between atoms: CB_5  and  CG_6
REMARK                            x       y       z     vdW  Elec       q    Type
REMARK                         _______ _______ _______ _____ _____    ______ ____
ROOT
ATOM      1  CA  PHE A   1      37.910   0.652   5.167  0.00  0.00    +0.165 C 
ENDROOT
BRANCH   1   2
ATOM      2  N   PHE A   1      38.955   0.068   4.321  0.00  0.00    -0.318 NA
ATOM      3  H1  PHE A   1      39.201  -0.886   4.674  0.00  0.00    +0.119 HD
ATOM      4  H2  PHE A   1      39.815   0.661   4.392  0.00  0.00    +0.119 HD
ENDBRANCH   1   2
BRANCH   1   5
ATOM      5  C   PHE A   1      36.801   1.227   4.327  0.00  0.00    +0.322 C 
ATOM      6  O   PHE A   1      35.853   0.494   3.934  0.00  0.00    -0.249 OA
BRANCH   5   7
ATOM      7  OXT PHE A   1      36.825   2.574   3.980  0.00  0.00    -0.480 OA
ATOM      8  HXT PHE A   1      36.255   3.249   4.475  0.00  0.00    +0.295 HD
ENDBRANCH   5   7
ENDBRANCH   1   5
BRANCH   1   9
ATOM      9  CB  PHE A   1      38.501   1.731   6.092  0.00  0.00    +0.065 C 
BRANCH   9  10
ATOM     10  CG  PHE A   1      37.821   1.733   7.438  0.00  0.00    -0.045 A 
ATOM     11  CD1 PHE A   1      38.017   2.802   8.328  0.00  0.00    +0.004 A 
ATOM     12  CD2 PHE A   1      36.949   0.690   7.796  0.00  0.00    +0.004 A 
ATOM     13  CE1 PHE A   1      37.365   2.818   9.565  0.00  0.00    +0.000 A 
ATOM     14  CE2 PHE A   1      36.299   0.710   9.034  0.00  0.00    +0.000 A 
ATOM     15  CZ  PHE A   1      36.508   1.771   9.918  0.00  0.00    +0.000 A 
ENDBRANCH   9  10
ENDBRANCH   1   9
TORSDOF 5
ENDMDL
