MODEL 9
REMARK VINA RESULT:    -4.672      2.062      2.217
REMARK INTER + INTRA:          -5.947
REMARK INTER:                  -5.731
REMARK INTRA:                  -0.216
REMARK UNBOUND:                -0.183
REMARK  Name = PHE
REMARK  5 active torsions:
REMARK  status: ('A' for Active; 'I' for Inactive)
REMARK    1  A    between atoms: N_1  and  CA_2
REMARK    2  A    between atoms: CA_2  and  C_3
REMARK    3  A    between atoms: CA_2  and  CB_5
REMARK    4  A    between atoms: C_3  and  OXT_12
REMARK    5  A    between atoms: CB_5  and  CG_6
REMARK                            x       y       z     vdW  Elec       q    Type
REMARK                         _______ _______ _______ _____ _____    ______ ____
ROOT
ATOM      1  CA  PHE A   1      36.729   1.362   5.027  0.00  0.00    +0.165 C 
ENDROOT
BRANCH   1   2
ATOM      2  N   PHE A   1      35.458   1.477   4.306  0.00  0.00    -0.318 NA
ATOM      3  H1  PHE A   1      35.643   1.730   3.307  0.00  0.00    +0.119 HD
ATOM      4  H2  PHE A   1      34.900   2.255   4.729  0.00  0.00    +0.119 HD
ENDBRANCH   1   2
BRANCH   1   5
ATOM      5  C   PHE A   1      37.813   0.845   4.120  0.00  0.00    +0.322 C 
ATOM      6  O   PHE A   1      37.655   0.848   2.869  0.00  0.00    -0.249 OA
BRANCH   5   7
ATOM      7  OXT PHE A   1      38.997   0.357   4.666  0.00  0.00    -0.480 OA
ATOM      8  HXT PHE A   1      38.989  -0.191   5.518  0.00  0.00    +0.295 HD
ENDBRANCH   5   7
ENDBRANCH   1   5
BRANCH   1   9
ATOM      9  CB  PHE A   1      36.574   0.448   6.257  0.00  0.00    +0.065 C 
BRANCH   9  10
ATOM     10  CG  PHE A   1      36.819   1.206   7.537  0.00  0.00    -0.045 A 
ATOM     11  CD1 PHE A   1      37.702   2.299   7.554  0.00  0.00    +0.004 A 
ATOM     12  CD2 PHE A   1      36.134   0.856   8.713  0.00  0.00    +0.004 A 
ATOM     13  CE1 PHE A   1      37.909   3.020   8.735  0.00  0.00    +0.000 A 
ATOM     14  CE2 PHE A   1      36.344   1.579   9.892  0.00  0.00    +0.000 A 
ATOM     15  CZ  PHE A   1      37.231   2.659   9.903  0.00  0.00    +0.000 A 
ENDBRANCH   9  10
ENDBRANCH   1   9
TORSDOF 5
ENDMDL
