MODEL 6
REMARK VINA RESULT:    -4.902      3.269      5.067
REMARK INTER + INTRA:          -6.232
REMARK INTER:                  -6.020
REMARK INTRA:                  -0.212
REMARK UNBOUND:                -0.183
REMARK  Name = PHE
REMARK  5 active torsions:
REMARK  status: ('A' for Active; 'I' for Inactive)
REMARK    1  A    between atoms: N_1  and  CA_2
REMARK    2  A    between atoms: CA_2  and  C_3
REMARK    3  A    between atoms: CA_2  and  CB_5
REMARK    4  A    between atoms: C_3  and  OXT_12
REMARK    5  A    between atoms: CB_5  and  CG_6
REMARK                            x       y       z     vdW  Elec       q    Type
REMARK                         _______ _______ _______ _____ _____    ______ ____
ROOT
ATOM      1  CA  PHE A   1      37.049   1.964   8.278  0.00  0.00    +0.165 C 
ENDROOT
BRANCH   1   2
ATOM      2  N   PHE A   1      38.068   2.999   8.475  0.00  0.00    -0.318 NA
ATOM      3  H1  PHE A   1      38.172   3.561   7.599  0.00  0.00    +0.119 HD
ATOM      4  H2  PHE A   1      38.988   2.534   8.661  0.00  0.00    +0.119 HD
ENDBRANCH   1   2
BRANCH   1   5
ATOM      5  C   PHE A   1      36.518   1.477   9.600  0.00  0.00    +0.322 C 
ATOM      6  O   PHE A   1      36.722   2.141  10.653  0.00  0.00    -0.249 OA
BRANCH   5   7
ATOM      7  OXT PHE A   1      35.800   0.287   9.660  0.00  0.00    -0.480 OA
ATOM      8  HXT PHE A   1      36.252  -0.602   9.481  0.00  0.00    +0.295 HD
ENDBRANCH   5   7
ENDBRANCH   1   5
BRANCH   1   9
ATOM      9  CB  PHE A   1      37.619   0.790   7.461  0.00  0.00    +0.065 C 
BRANCH   9  10
ATOM     10  CG  PHE A   1      36.731   0.454   6.290  0.00  0.00    -0.045 A 
ATOM     11  CD1 PHE A   1      36.140  -0.817   6.191  0.00  0.00    +0.004 A 
ATOM     12  CD2 PHE A   1      36.447   1.422   5.311  0.00  0.00    +0.004 A 
ATOM     13  CE1 PHE A   1      35.295  -1.120   5.120  0.00  0.00    +0.000 A 
ATOM     14  CE2 PHE A   1      35.601   1.115   4.241  0.00  0.00    +0.000 A 
ATOM     15  CZ  PHE A   1      35.027  -0.155   4.145  0.00  0.00    +0.000 A 
ENDBRANCH   9  10
ENDBRANCH   1   9
TORSDOF 5
ENDMDL
