MODEL 17
REMARK VINA RESULT:    -4.390     11.461     12.660
REMARK INTER + INTRA:          -5.599
REMARK INTER:                  -5.435
REMARK INTRA:                  -0.165
REMARK UNBOUND:                -0.183
REMARK  Name = PHE
REMARK  5 active torsions:
REMARK  status: ('A' for Active; 'I' for Inactive)
REMARK    1  A    between atoms: N_1  and  CA_2
REMARK    2  A    between atoms: CA_2  and  C_3
REMARK    3  A    between atoms: CA_2  and  CB_5
REMARK    4  A    between atoms: C_3  and  OXT_12
REMARK    5  A    between atoms: CB_5  and  CG_6
REMARK                            x       y       z     vdW  Elec       q    Type
REMARK                         _______ _______ _______ _____ _____    ______ ____
ROOT
ATOM      1  CA  PHE A   1      28.163  -5.629  12.214  0.00  0.00    +0.165 C 
ENDROOT
BRANCH   1   2
ATOM      2  N   PHE A   1      26.949  -5.372  11.436  0.00  0.00    -0.318 NA
ATOM      3  H1  PHE A   1      26.119  -5.362  12.074  0.00  0.00    +0.119 HD
ATOM      4  H2  PHE A   1      26.813  -6.156  10.756  0.00  0.00    +0.119 HD
ENDBRANCH   1   2
BRANCH   1   5
ATOM      5  C   PHE A   1      28.571  -4.404  12.989  0.00  0.00    +0.322 C 
ATOM      6  O   PHE A   1      27.785  -3.423  13.093  0.00  0.00    -0.249 OA
BRANCH   5   7
ATOM      7  OXT PHE A   1      29.825  -4.353  13.591  0.00  0.00    -0.480 OA
ATOM      8  HXT PHE A   1      30.623  -3.972  13.098  0.00  0.00    +0.295 HD
ENDBRANCH   5   7
ENDBRANCH   1   5
BRANCH   1   9
ATOM      9  CB  PHE A   1      29.309  -6.091  11.296  0.00  0.00    +0.065 C 
BRANCH   9  10
ATOM     10  CG  PHE A   1      29.414  -7.595  11.264  0.00  0.00    -0.045 A 
ATOM     11  CD1 PHE A   1      30.177  -8.271  12.232  0.00  0.00    +0.004 A 
ATOM     12  CD2 PHE A   1      28.714  -8.337  10.298  0.00  0.00    +0.004 A 
ATOM     13  CE1 PHE A   1      30.253  -9.668  12.219  0.00  0.00    +0.000 A 
ATOM     14  CE2 PHE A   1      28.792  -9.734  10.290  0.00  0.00    +0.000 A 
ATOM     15  CZ  PHE A   1      29.562 -10.397  11.248  0.00  0.00    +0.000 A 
ENDBRANCH   9  10
ENDBRANCH   1   9
TORSDOF 5
ENDMDL
