REMARK  Name = BEM
REMARK  12 active torsions:
REMARK  status: ('A' for Active; 'I' for Inactive)
REMARK    1  A    between atoms: C_1  and  O_20
REMARK    2  A    between atoms: C_2  and  O_3
REMARK    3  A    between atoms: C_4  and  O_5
REMARK    4  A    between atoms: C_6  and  O_7
REMARK    5  A    between atoms: C_8  and  C_10
REMARK    6  A    between atoms: C_10  and  O_11
REMARK    7  A    between atoms: C_13  and  O_14
REMARK    8  A    between atoms: C_15  and  O_16
REMARK    9  A    between atoms: C_17  and  O_18
REMARK   10  A    between atoms: C_19  and  O_20
REMARK   11  A    between atoms: C_21  and  C_23
REMARK   12  A    between atoms: C_23  and  O_25
REMARK                            x       y       z     vdW  Elec       q    Type
REMARK                         _______ _______ _______ _____ _____    ______ ____
ROOT
ATOM      1  O   UNL     1      -0.129   0.497   0.070  0.00  0.00    -0.340 OA
ENDROOT
BRANCH   1   2
ATOM      2  C   UNL     1      -0.758  -0.509   0.853  0.00  0.00    +0.283 C 
ATOM      3  C   UNL     1      -1.271  -1.666  -0.036  0.00  0.00    +0.201 C 
ATOM      4  C   UNL     1      -2.423  -1.179  -0.932  0.00  0.00    +0.179 C 
ATOM      5  C   UNL     1      -3.493  -0.471  -0.086  0.00  0.00    +0.185 C 
ATOM      6  C   UNL     1      -2.825   0.612   0.787  0.00  0.00    +0.260 C 
ATOM      7  O   UNL     1      -1.817   0.052   1.614  0.00  0.00    -0.332 OA
BRANCH   3   8
ATOM      8  O   UNL     1      -1.718  -2.726   0.771  0.00  0.00    -0.384 OA
ATOM      9  H   UNL     1      -0.909  -3.197   1.101  0.00  0.00    +0.210 HD
ENDBRANCH   3   8
BRANCH   4  10
ATOM     10  O   UNL     1      -3.001  -2.263  -1.612  0.00  0.00    -0.386 OA
ATOM     11  H   UNL     1      -2.361  -2.528  -2.324  0.00  0.00    +0.210 HD
ENDBRANCH   4  10
BRANCH   5  12
ATOM     12  O   UNL     1      -4.446   0.127  -0.928  0.00  0.00    -0.386 OA
ATOM     13  H   UNL     1      -5.070  -0.591  -1.213  0.00  0.00    +0.210 HD
ENDBRANCH   5  12
BRANCH   6  14
ATOM     14  C   UNL     1      -3.852   1.268   1.663  0.00  0.00    +0.337 C 
ATOM     15  O   UNL     1      -4.291   0.670   2.683  0.00  0.00    -0.248 OA
BRANCH  14  16
ATOM     16  O   UNL     1      -4.346   2.525   1.329  0.00  0.00    -0.479 OA
ATOM     17  H   UNL     1      -5.049   2.976   1.903  0.00  0.00    +0.295 HD
ENDBRANCH  14  16
ENDBRANCH   6  14
ENDBRANCH   1   2
BRANCH   1  21
ATOM     18  C   UNL     1       3.965   0.638  -0.387  0.00  0.00    +0.280 C 
ATOM     19  C   UNL     1       3.189   0.477  -1.720  0.00  0.00    +0.201 C 
ATOM     20  C   UNL     1       1.674   0.695  -1.511  0.00  0.00    +0.180 C 
ATOM     21  C   UNL     1       1.262   0.262  -0.095  0.00  0.00    +0.192 C 
ATOM     22  C   UNL     1       2.068   1.109   0.938  0.00  0.00    +0.260 C 
ATOM     23  O   UNL     1       3.329   1.576   0.465  0.00  0.00    -0.332 OA
BRANCH  18  24
ATOM     24  O   UNL     1       5.282   1.051  -0.642  0.00  0.00    -0.365 OA
ATOM     25  H   UNL     1       5.240   1.997  -0.941  0.00  0.00    +0.213 HD
ENDBRANCH  18  24
BRANCH  19  26
ATOM     26  O   UNL     1       3.425  -0.806  -2.246  0.00  0.00    -0.384 OA
ATOM     27  H   UNL     1       4.350  -0.802  -2.606  0.00  0.00    +0.210 HD
ENDBRANCH  19  26
BRANCH  20  28
ATOM     28  O   UNL     1       0.945  -0.022  -2.476  0.00  0.00    -0.386 OA
ATOM     29  H   UNL     1       0.082   0.453  -2.600  0.00  0.00    +0.210 HD
ENDBRANCH  20  28
BRANCH  22  30
ATOM     30  C   UNL     1       2.240   0.397   2.253  0.00  0.00    +0.337 C 
ATOM     31  O   UNL     1       1.923   0.977   3.327  0.00  0.00    -0.248 OA
BRANCH  30  32
ATOM     32  O   UNL     1       2.770  -0.889   2.296  0.00  0.00    -0.479 OA
ATOM     33  H   UNL     1       2.893  -1.371   3.178  0.00  0.00    +0.295 HD
ENDBRANCH  30  32
ENDBRANCH  22  30
ENDBRANCH   1  21
TORSDOF 12
