MODEL 1
REMARK VINA RESULT:    -5.668      0.000      0.000
REMARK INTER + INTRA:          -7.626
REMARK INTER:                  -7.159
REMARK INTRA:                  -0.467
REMARK UNBOUND:                -0.467
REMARK  Name = AMQ
REMARK  7 active torsions:
REMARK  status: ('A' for Active; 'I' for Inactive)
REMARK    1  A    between atoms: N_1  and  CA_2
REMARK    2  A    between atoms: CA_2  and  C_3
REMARK    3  A    between atoms: CA_2  and  C_6
REMARK    4  A    between atoms: C_3  and  OXT_5
REMARK    5  A    between atoms: C_6  and  C_7
REMARK    6  A    between atoms: C_8  and  O_11
REMARK    7  A    between atoms: C_9  and  C_10
REMARK                            x       y       z     vdW  Elec       q    Type
REMARK                         _______ _______ _______ _____ _____    ______ ____
ROOT
ATOM      1  C   UNL     1      -1.767  49.534   8.873  0.00  0.00    +0.074 C 
ENDROOT
BRANCH   1   2
ATOM      2  C   UNL     1      -1.611  48.723   7.615  0.00  0.00    +0.059 A 
ATOM      3  C   UNL     1      -0.491  48.569   6.823  0.00  0.00    +0.256 A 
ATOM      4  C   UNL     1      -2.582  48.006   6.940  0.00  0.00    +0.141 A 
ATOM      5  C   UNL     1      -4.010  47.833   7.337  0.00  0.00    +0.089 C 
ATOM      6  N   UNL     1      -0.784  47.800   5.758  0.00  0.00    -0.040 NA
ATOM      7  O   UNL     1      -2.043  47.481   5.862  0.00  0.00    -0.356 OA
BRANCH   3   8
ATOM      8  O   UNL     1       0.769  49.116   7.048  0.00  0.00    -0.490 OA
ATOM      9  H   UNL     1       1.305  48.888   7.876  0.00  0.00    +0.294 HD
ENDBRANCH   3   8
ENDBRANCH   1   2
BRANCH   1  10
ATOM     10  CA  UNL     1      -0.902  48.985  10.023  0.00  0.00    +0.165 C 
BRANCH  10  11
ATOM     11  N   UNL     1      -1.735  48.629  11.175  0.00  0.00    -0.318 NA
ATOM     12  H1  UNL     1      -2.654  49.117  11.083  0.00  0.00    +0.119 HD
ATOM     13  H2  UNL     1      -1.955  47.608  11.121  0.00  0.00    +0.119 HD
ENDBRANCH  10  11
BRANCH  10  14
ATOM     14  C   UNL     1       0.102  50.025  10.428  0.00  0.00    +0.322 C 
ATOM     15  O   UNL     1       0.492  50.095  11.625  0.00  0.00    -0.249 OA
BRANCH  14  16
ATOM     16  OXT UNL     1       0.627  50.895   9.476  0.00  0.00    -0.480 OA
ATOM     17  HXT UNL     1       1.263  51.636   9.745  0.00  0.00    +0.295 HD
ENDBRANCH  14  16
ENDBRANCH  10  14
ENDBRANCH   1  10
TORSDOF 6
ENDMDL
MODEL 2
REMARK VINA RESULT:    -5.514      4.891      7.160
REMARK INTER + INTRA:          -7.432
REMARK INTER:                  -7.087
REMARK INTRA:                  -0.344
REMARK UNBOUND:                -0.467
REMARK  Name = AMQ
REMARK  7 active torsions:
REMARK  status: ('A' for Active; 'I' for Inactive)
REMARK    1  A    between atoms: N_1  and  CA_2
REMARK    2  A    between atoms: CA_2  and  C_3
REMARK    3  A    between atoms: CA_2  and  C_6
REMARK    4  A    between atoms: C_3  and  OXT_5
REMARK    5  A    between atoms: C_6  and  C_7
REMARK    6  A    between atoms: C_8  and  O_11
REMARK    7  A    between atoms: C_9  and  C_10
REMARK                            x       y       z     vdW  Elec       q    Type
REMARK                         _______ _______ _______ _____ _____    ______ ____
ROOT
ATOM      1  C   UNL     1      -2.396  45.531  11.979  0.00  0.00    +0.074 C 
ENDROOT
BRANCH   1   2
ATOM      2  C   UNL     1      -2.909  46.302  13.165  0.00  0.00    +0.059 A 
ATOM      3  C   UNL     1      -3.655  45.844  14.233  0.00  0.00    +0.256 A 
ATOM      4  C   UNL     1      -2.800  47.659  13.410  0.00  0.00    +0.141 A 
ATOM      5  C   UNL     1      -2.098  48.670  12.565  0.00  0.00    +0.089 C 
ATOM      6  N   UNL     1      -3.953  46.866  15.057  0.00  0.00    -0.040 NA
ATOM      7  O   UNL     1      -3.424  47.935  14.533  0.00  0.00    -0.356 OA
BRANCH   3   8
ATOM      8  O   UNL     1      -4.068  44.535  14.459  0.00  0.00    -0.490 OA
ATOM      9  H   UNL     1      -4.396  43.945  13.704  0.00  0.00    +0.294 HD
ENDBRANCH   3   8
ENDBRANCH   1   2
BRANCH   1  10
ATOM     10  CA  UNL     1      -3.542  44.938  11.139  0.00  0.00    +0.165 C 
BRANCH  10  11
ATOM     11  N   UNL     1      -3.635  43.490  11.335  0.00  0.00    -0.318 NA
ATOM     12  H1  UNL     1      -4.543  43.159  10.936  0.00  0.00    +0.119 HD
ATOM     13  H2  UNL     1      -2.894  43.029  10.759  0.00  0.00    +0.119 HD
ENDBRANCH  10  11
BRANCH  10  14
ATOM     14  C   UNL     1      -3.295  45.235   9.687  0.00  0.00    +0.322 C 
ATOM     15  O   UNL     1      -2.976  46.400   9.326  0.00  0.00    -0.249 OA
BRANCH  14  16
ATOM     16  OXT UNL     1      -3.390  44.218   8.742  0.00  0.00    -0.480 OA
ATOM     17  HXT UNL     1      -2.674  43.504   8.674  0.00  0.00    +0.295 HD
ENDBRANCH  14  16
ENDBRANCH  10  14
ENDBRANCH   1  10
TORSDOF 6
ENDMDL
MODEL 3
REMARK VINA RESULT:    -5.481      4.411      6.478
REMARK INTER + INTRA:          -7.390
REMARK INTER:                  -6.938
REMARK INTRA:                  -0.452
REMARK UNBOUND:                -0.467
REMARK  Name = AMQ
REMARK  7 active torsions:
REMARK  status: ('A' for Active; 'I' for Inactive)
REMARK    1  A    between atoms: N_1  and  CA_2
REMARK    2  A    between atoms: CA_2  and  C_3
REMARK    3  A    between atoms: CA_2  and  C_6
REMARK    4  A    between atoms: C_3  and  OXT_5
REMARK    5  A    between atoms: C_6  and  C_7
REMARK    6  A    between atoms: C_8  and  O_11
REMARK    7  A    between atoms: C_9  and  C_10
REMARK                            x       y       z     vdW  Elec       q    Type
REMARK                         _______ _______ _______ _____ _____    ______ ____
ROOT
ATOM      1  C   UNL     1      -3.004  47.288  12.543  0.00  0.00    +0.074 C 
ENDROOT
BRANCH   1   2
ATOM      2  C   UNL     1      -2.131  48.510  12.635  0.00  0.00    +0.059 A 
ATOM      3  C   UNL     1      -1.970  49.376  13.698  0.00  0.00    +0.256 A 
ATOM      4  C   UNL     1      -1.345  49.071  11.644  0.00  0.00    +0.141 A 
ATOM      5  C   UNL     1      -1.148  48.558  10.256  0.00  0.00    +0.089 C 
ATOM      6  N   UNL     1      -1.133  50.373  13.356  0.00  0.00    -0.040 NA
ATOM      7  O   UNL     1      -0.780  50.157  12.121  0.00  0.00    -0.356 OA
BRANCH   3   8
ATOM      8  O   UNL     1      -2.569  49.276  14.950  0.00  0.00    -0.490 OA
ATOM      9  H   UNL     1      -2.405  48.480  15.554  0.00  0.00    +0.294 HD
ENDBRANCH   3   8
ENDBRANCH   1   2
BRANCH   1  10
ATOM     10  CA  UNL     1      -2.546  46.179  13.507  0.00  0.00    +0.165 C 
BRANCH  10  11
ATOM     11  N   UNL     1      -2.193  44.963  12.771  0.00  0.00    -0.318 NA
ATOM     12  H1  UNL     1      -2.022  45.218  11.772  0.00  0.00    +0.119 HD
ATOM     13  H2  UNL     1      -1.274  44.614  13.129  0.00  0.00    +0.119 HD
ENDBRANCH  10  11
BRANCH  10  14
ATOM     14  C   UNL     1      -3.653  45.877  14.477  0.00  0.00    +0.322 C 
ATOM     15  O   UNL     1      -4.422  46.798  14.864  0.00  0.00    -0.249 OA
BRANCH  14  16
ATOM     16  OXT UNL     1      -3.850  44.575  14.927  0.00  0.00    -0.480 OA
ATOM     17  HXT UNL     1      -4.765  44.263  15.229  0.00  0.00    +0.295 HD
ENDBRANCH  14  16
ENDBRANCH  10  14
ENDBRANCH   1  10
TORSDOF 6
ENDMDL
MODEL 4
REMARK VINA RESULT:    -5.386      4.604      6.653
REMARK INTER + INTRA:          -7.269
REMARK INTER:                  -6.813
REMARK INTRA:                  -0.456
REMARK UNBOUND:                -0.467
REMARK  Name = AMQ
REMARK  7 active torsions:
REMARK  status: ('A' for Active; 'I' for Inactive)
REMARK    1  A    between atoms: N_1  and  CA_2
REMARK    2  A    between atoms: CA_2  and  C_3
REMARK    3  A    between atoms: CA_2  and  C_6
REMARK    4  A    between atoms: C_3  and  OXT_5
REMARK    5  A    between atoms: C_6  and  C_7
REMARK    6  A    between atoms: C_8  and  O_11
REMARK    7  A    between atoms: C_9  and  C_10
REMARK                            x       y       z     vdW  Elec       q    Type
REMARK                         _______ _______ _______ _____ _____    ______ ____
ROOT
ATOM      1  C   UNL     1      -2.343  45.358  12.099  0.00  0.00    +0.074 C 
ENDROOT
BRANCH   1   2
ATOM      2  C   UNL     1      -2.749  46.511  12.977  0.00  0.00    +0.059 A 
ATOM      3  C   UNL     1      -2.449  47.851  12.833  0.00  0.00    +0.256 A 
ATOM      4  C   UNL     1      -3.459  46.468  14.163  0.00  0.00    +0.141 A 
ATOM      5  C   UNL     1      -4.032  45.258  14.824  0.00  0.00    +0.089 C 
ATOM      6  N   UNL     1      -2.963  48.550  13.863  0.00  0.00    -0.040 NA
ATOM      7  O   UNL     1      -3.560  47.690  14.638  0.00  0.00    -0.356 OA
BRANCH   3   8
ATOM      8  O   UNL     1      -1.722  48.435  11.801  0.00  0.00    -0.490 OA
ATOM      9  H   UNL     1      -2.173  48.768  10.957  0.00  0.00    +0.294 HD
ENDBRANCH   3   8
ENDBRANCH   1   2
BRANCH   1  10
ATOM     10  CA  UNL     1      -3.492  44.900  11.183  0.00  0.00    +0.165 C 
BRANCH  10  11
ATOM     11  N   UNL     1      -3.700  43.454  11.293  0.00  0.00    -0.318 NA
ATOM     12  H1  UNL     1      -3.936  43.080  10.347  0.00  0.00    +0.119 HD
ATOM     13  H2  UNL     1      -2.789  43.008  11.548  0.00  0.00    +0.119 HD
ENDBRANCH  10  11
BRANCH  10  14
ATOM     14  C   UNL     1      -3.164  45.256   9.761  0.00  0.00    +0.322 C 
ATOM     15  O   UNL     1      -3.420  44.443   8.831  0.00  0.00    -0.249 OA
BRANCH  14  16
ATOM     16  OXT UNL     1      -2.604  46.495   9.464  0.00  0.00    -0.480 OA
ATOM     17  HXT UNL     1      -1.974  46.605   8.679  0.00  0.00    +0.295 HD
ENDBRANCH  14  16
ENDBRANCH  10  14
ENDBRANCH   1  10
TORSDOF 6
ENDMDL
MODEL 5
REMARK VINA RESULT:    -5.303      1.625      4.622
REMARK INTER + INTRA:          -7.165
REMARK INTER:                  -6.801
REMARK INTRA:                  -0.364
REMARK UNBOUND:                -0.467
REMARK  Name = AMQ
REMARK  7 active torsions:
REMARK  status: ('A' for Active; 'I' for Inactive)
REMARK    1  A    between atoms: N_1  and  CA_2
REMARK    2  A    between atoms: CA_2  and  C_3
REMARK    3  A    between atoms: CA_2  and  C_6
REMARK    4  A    between atoms: C_3  and  OXT_5
REMARK    5  A    between atoms: C_6  and  C_7
REMARK    6  A    between atoms: C_8  and  O_11
REMARK    7  A    between atoms: C_9  and  C_10
REMARK                            x       y       z     vdW  Elec       q    Type
REMARK                         _______ _______ _______ _____ _____    ______ ____
ROOT
ATOM      1  C   UNL     1      -1.575  49.066   8.161  0.00  0.00    +0.074 C 
ENDROOT
BRANCH   1   2
ATOM      2  C   UNL     1      -1.054  49.420   9.527  0.00  0.00    +0.059 A 
ATOM      3  C   UNL     1      -0.149  50.403   9.876  0.00  0.00    +0.256 A 
ATOM      4  C   UNL     1      -1.320  48.791  10.730  0.00  0.00    +0.141 A 
ATOM      5  C   UNL     1      -2.233  47.631  10.953  0.00  0.00    +0.089 C 
ATOM      6  N   UNL     1       0.090  50.360  11.200  0.00  0.00    -0.040 NA
ATOM      7  O   UNL     1      -0.628  49.383  11.677  0.00  0.00    -0.356 OA
BRANCH   3   8
ATOM      8  O   UNL     1       0.457  51.317   9.020  0.00  0.00    -0.490 OA
ATOM      9  H   UNL     1       0.344  51.258   8.015  0.00  0.00    +0.294 HD
ENDBRANCH   3   8
ENDBRANCH   1   2
BRANCH   1  10
ATOM     10  CA  UNL     1      -0.559  48.236   7.355  0.00  0.00    +0.165 C 
BRANCH  10  11
ATOM     11  N   UNL     1       0.355  49.109   6.615  0.00  0.00    -0.318 NA
ATOM     12  H1  UNL     1       1.337  48.835   6.848  0.00  0.00    +0.119 HD
ATOM     13  H2  UNL     1       0.247  48.912   5.594  0.00  0.00    +0.119 HD
ENDBRANCH  10  11
BRANCH  10  14
ATOM     14  C   UNL     1      -1.297  47.347   6.394  0.00  0.00    +0.322 C 
ATOM     15  O   UNL     1      -2.422  47.697   5.947  0.00  0.00    -0.249 OA
BRANCH  14  16
ATOM     16  OXT UNL     1      -0.724  46.151   5.972  0.00  0.00    -0.480 OA
ATOM     17  HXT UNL     1      -0.007  46.142   5.256  0.00  0.00    +0.295 HD
ENDBRANCH  14  16
ENDBRANCH  10  14
ENDBRANCH   1  10
TORSDOF 6
ENDMDL
MODEL 6
REMARK VINA RESULT:    -5.143      4.319      5.813
REMARK INTER + INTRA:          -6.963
REMARK INTER:                  -6.629
REMARK INTRA:                  -0.334
REMARK UNBOUND:                -0.467
REMARK  Name = AMQ
REMARK  7 active torsions:
REMARK  status: ('A' for Active; 'I' for Inactive)
REMARK    1  A    between atoms: N_1  and  CA_2
REMARK    2  A    between atoms: CA_2  and  C_3
REMARK    3  A    between atoms: CA_2  and  C_6
REMARK    4  A    between atoms: C_3  and  OXT_5
REMARK    5  A    between atoms: C_6  and  C_7
REMARK    6  A    between atoms: C_8  and  O_11
REMARK    7  A    between atoms: C_9  and  C_10
REMARK                            x       y       z     vdW  Elec       q    Type
REMARK                         _______ _______ _______ _____ _____    ______ ____
ROOT
ATOM      1  C   UNL     1      -3.187  47.361  12.495  0.00  0.00    +0.074 C 
ENDROOT
BRANCH   1   2
ATOM      2  C   UNL     1      -2.091  48.196  11.892  0.00  0.00    +0.059 A 
ATOM      3  C   UNL     1      -1.326  47.935  10.772  0.00  0.00    +0.256 A 
ATOM      4  C   UNL     1      -1.565  49.383  12.368  0.00  0.00    +0.141 A 
ATOM      5  C   UNL     1      -2.003  50.138  13.580  0.00  0.00    +0.089 C 
ATOM      6  N   UNL     1      -0.417  48.913  10.598  0.00  0.00    -0.040 NA
ATOM      7  O   UNL     1      -0.590  49.762  11.571  0.00  0.00    -0.356 OA
BRANCH   3   8
ATOM      8  O   UNL     1      -1.436  46.834   9.928  0.00  0.00    -0.490 OA
ATOM      9  H   UNL     1      -1.221  45.897  10.248  0.00  0.00    +0.294 HD
ENDBRANCH   3   8
ENDBRANCH   1   2
BRANCH   1  10
ATOM     10  CA  UNL     1      -2.632  46.282  13.443  0.00  0.00    +0.165 C 
BRANCH  10  11
ATOM     11  N   UNL     1      -2.179  45.111  12.688  0.00  0.00    -0.318 NA
ATOM     12  H1  UNL     1      -1.415  45.409  12.041  0.00  0.00    +0.119 HD
ATOM     13  H2  UNL     1      -1.732  44.440  13.355  0.00  0.00    +0.119 HD
ENDBRANCH  10  11
BRANCH  10  14
ATOM     14  C   UNL     1      -3.706  45.873  14.411  0.00  0.00    +0.322 C 
ATOM     15  O   UNL     1      -4.596  46.698  14.753  0.00  0.00    -0.249 OA
BRANCH  14  16
ATOM     16  OXT UNL     1      -3.738  44.573  14.908  0.00  0.00    -0.480 OA
ATOM     17  HXT UNL     1      -4.035  44.388  15.858  0.00  0.00    +0.295 HD
ENDBRANCH  14  16
ENDBRANCH  10  14
ENDBRANCH   1  10
TORSDOF 6
ENDMDL
MODEL 7
REMARK VINA RESULT:    -5.132      4.419      5.065
REMARK INTER + INTRA:          -6.949
REMARK INTER:                  -6.478
REMARK INTRA:                  -0.471
REMARK UNBOUND:                -0.467
REMARK  Name = AMQ
REMARK  7 active torsions:
REMARK  status: ('A' for Active; 'I' for Inactive)
REMARK    1  A    between atoms: N_1  and  CA_2
REMARK    2  A    between atoms: CA_2  and  C_3
REMARK    3  A    between atoms: CA_2  and  C_6
REMARK    4  A    between atoms: C_3  and  OXT_5
REMARK    5  A    between atoms: C_6  and  C_7
REMARK    6  A    between atoms: C_8  and  O_11
REMARK    7  A    between atoms: C_9  and  C_10
REMARK                            x       y       z     vdW  Elec       q    Type
REMARK                         _______ _______ _______ _____ _____    ______ ____
ROOT
ATOM      1  C   UNL     1      -2.316  47.473  11.305  0.00  0.00    +0.074 C 
ENDROOT
BRANCH   1   2
ATOM      2  C   UNL     1      -2.791  46.061  11.094  0.00  0.00    +0.059 A 
ATOM      3  C   UNL     1      -2.682  44.979  11.944  0.00  0.00    +0.256 A 
ATOM      4  C   UNL     1      -3.386  45.523   9.967  0.00  0.00    +0.141 A 
ATOM      5  C   UNL     1      -3.737  46.242   8.707  0.00  0.00    +0.089 C 
ATOM      6  N   UNL     1      -3.191  43.880  11.357  0.00  0.00    -0.040 NA
ATOM      7  O   UNL     1      -3.603  44.244  10.176  0.00  0.00    -0.356 OA
BRANCH   3   8
ATOM      8  O   UNL     1      -2.128  44.977  13.221  0.00  0.00    -0.490 OA
ATOM      9  H   UNL     1      -1.164  45.244  13.381  0.00  0.00    +0.294 HD
ENDBRANCH   3   8
ENDBRANCH   1   2
BRANCH   1  10
ATOM     10  CA  UNL     1      -3.257  48.264  12.232  0.00  0.00    +0.165 C 
BRANCH  10  11
ATOM     11  N   UNL     1      -3.657  49.529  11.611  0.00  0.00    -0.318 NA
ATOM     12  H1  UNL     1      -2.796  50.025  11.284  0.00  0.00    +0.119 HD
ATOM     13  H2  UNL     1      -4.200  49.314  10.743  0.00  0.00    +0.119 HD
ENDBRANCH  10  11
BRANCH  10  14
ATOM     14  C   UNL     1      -2.555  48.541  13.532  0.00  0.00    +0.322 C 
ATOM     15  O   UNL     1      -2.520  49.714  13.994  0.00  0.00    -0.249 OA
BRANCH  14  16
ATOM     16  OXT UNL     1      -1.968  47.498  14.242  0.00  0.00    -0.480 OA
ATOM     17  HXT UNL     1      -1.345  47.684  15.019  0.00  0.00    +0.295 HD
ENDBRANCH  14  16
ENDBRANCH  10  14
ENDBRANCH   1  10
TORSDOF 6
ENDMDL
MODEL 8
REMARK VINA RESULT:    -5.108      4.827      5.574
REMARK INTER + INTRA:          -6.919
REMARK INTER:                  -6.496
REMARK INTRA:                  -0.422
REMARK UNBOUND:                -0.467
REMARK  Name = AMQ
REMARK  7 active torsions:
REMARK  status: ('A' for Active; 'I' for Inactive)
REMARK    1  A    between atoms: N_1  and  CA_2
REMARK    2  A    between atoms: CA_2  and  C_3
REMARK    3  A    between atoms: CA_2  and  C_6
REMARK    4  A    between atoms: C_3  and  OXT_5
REMARK    5  A    between atoms: C_6  and  C_7
REMARK    6  A    between atoms: C_8  and  O_11
REMARK    7  A    between atoms: C_9  and  C_10
REMARK                            x       y       z     vdW  Elec       q    Type
REMARK                         _______ _______ _______ _____ _____    ______ ____
ROOT
ATOM      1  C   UNL     1      -2.542  46.817  11.954  0.00  0.00    +0.074 C 
ENDROOT
BRANCH   1   2
ATOM      2  C   UNL     1      -3.320  46.100  10.883  0.00  0.00    +0.059 A 
ATOM      3  C   UNL     1      -3.512  44.742  10.721  0.00  0.00    +0.256 A 
ATOM      4  C   UNL     1      -3.958  46.647   9.785  0.00  0.00    +0.141 A 
ATOM      5  C   UNL     1      -4.061  48.094   9.435  0.00  0.00    +0.089 C 
ATOM      6  N   UNL     1      -4.229  44.510   9.606  0.00  0.00    -0.040 NA
ATOM      7  O   UNL     1      -4.478  45.672   9.072  0.00  0.00    -0.356 OA
BRANCH   3   8
ATOM      8  O   UNL     1      -3.047  43.731  11.556  0.00  0.00    -0.490 OA
ATOM      9  H   UNL     1      -2.212  43.849  12.117  0.00  0.00    +0.294 HD
ENDBRANCH   3   8
ENDBRANCH   1   2
BRANCH   1  10
ATOM     10  CA  UNL     1      -3.377  47.021  13.232  0.00  0.00    +0.165 C 
BRANCH  10  11
ATOM     11  N   UNL     1      -3.031  48.288  13.881  0.00  0.00    -0.318 NA
ATOM     12  H1  UNL     1      -2.555  48.901  13.181  0.00  0.00    +0.119 HD
ATOM     13  H2  UNL     1      -3.917  48.786  14.128  0.00  0.00    +0.119 HD
ENDBRANCH  10  11
BRANCH  10  14
ATOM     14  C   UNL     1      -3.120  45.883  14.178  0.00  0.00    +0.322 C 
ATOM     15  O   UNL     1      -2.031  45.249  14.124  0.00  0.00    -0.249 OA
BRANCH  14  16
ATOM     16  OXT UNL     1      -4.071  45.546  15.137  0.00  0.00    -0.480 OA
ATOM     17  HXT UNL     1      -5.033  45.849  15.043  0.00  0.00    +0.295 HD
ENDBRANCH  14  16
ENDBRANCH  10  14
ENDBRANCH   1  10
TORSDOF 6
ENDMDL
MODEL 9
REMARK VINA RESULT:    -5.041      3.442      4.989
REMARK INTER + INTRA:          -6.835
REMARK INTER:                  -6.517
REMARK INTRA:                  -0.318
REMARK UNBOUND:                -0.467
REMARK  Name = AMQ
REMARK  7 active torsions:
REMARK  status: ('A' for Active; 'I' for Inactive)
REMARK    1  A    between atoms: N_1  and  CA_2
REMARK    2  A    between atoms: CA_2  and  C_3
REMARK    3  A    between atoms: CA_2  and  C_6
REMARK    4  A    between atoms: C_3  and  OXT_5
REMARK    5  A    between atoms: C_6  and  C_7
REMARK    6  A    between atoms: C_8  and  O_11
REMARK    7  A    between atoms: C_9  and  C_10
REMARK                            x       y       z     vdW  Elec       q    Type
REMARK                         _______ _______ _______ _____ _____    ______ ____
ROOT
ATOM      1  C   UNL     1      -2.199  47.271  10.816  0.00  0.00    +0.074 C 
ENDROOT
BRANCH   1   2
ATOM      2  C   UNL     1      -1.142  48.340  10.740  0.00  0.00    +0.059 A 
ATOM      3  C   UNL     1      -0.190  48.541   9.760  0.00  0.00    +0.256 A 
ATOM      4  C   UNL     1      -0.852  49.318  11.673  0.00  0.00    +0.141 A 
ATOM      5  C   UNL     1      -1.561  49.567  12.963  0.00  0.00    +0.089 C 
ATOM      6  N   UNL     1       0.600  49.579  10.093  0.00  0.00    -0.040 NA
ATOM      7  O   UNL     1       0.174  50.019  11.243  0.00  0.00    -0.356 OA
BRANCH   3   8
ATOM      8  O   UNL     1      -0.028  47.802   8.593  0.00  0.00    -0.490 OA
ATOM      9  H   UNL     1       0.157  46.806   8.617  0.00  0.00    +0.294 HD
ENDBRANCH   3   8
ENDBRANCH   1   2
BRANCH   1  10
ATOM     10  CA  UNL     1      -1.593  45.857  10.746  0.00  0.00    +0.165 C 
BRANCH  10  11
ATOM     11  N   UNL     1      -1.802  45.267   9.421  0.00  0.00    -0.318 NA
ATOM     12  H1  UNL     1      -1.520  44.262   9.458  0.00  0.00    +0.119 HD
ATOM     13  H2  UNL     1      -2.829  45.260   9.221  0.00  0.00    +0.119 HD
ENDBRANCH  10  11
BRANCH  10  14
ATOM     14  C   UNL     1      -2.236  44.991  11.791  0.00  0.00    +0.322 C 
ATOM     15  O   UNL     1      -2.880  43.962  11.450  0.00  0.00    -0.249 OA
BRANCH  14  16
ATOM     16  OXT UNL     1      -2.097  45.307  13.140  0.00  0.00    -0.480 OA
ATOM     17  HXT UNL     1      -1.180  45.375  13.565  0.00  0.00    +0.295 HD
ENDBRANCH  14  16
ENDBRANCH  10  14
ENDBRANCH   1  10
TORSDOF 6
ENDMDL
MODEL 10
REMARK VINA RESULT:    -5.025      2.840      3.677
REMARK INTER + INTRA:          -6.814
REMARK INTER:                  -6.482
REMARK INTRA:                  -0.332
REMARK UNBOUND:                -0.467
REMARK  Name = AMQ
REMARK  7 active torsions:
REMARK  status: ('A' for Active; 'I' for Inactive)
REMARK    1  A    between atoms: N_1  and  CA_2
REMARK    2  A    between atoms: CA_2  and  C_3
REMARK    3  A    between atoms: CA_2  and  C_6
REMARK    4  A    between atoms: C_3  and  OXT_5
REMARK    5  A    between atoms: C_6  and  C_7
REMARK    6  A    between atoms: C_8  and  O_11
REMARK    7  A    between atoms: C_9  and  C_10
REMARK                            x       y       z     vdW  Elec       q    Type
REMARK                         _______ _______ _______ _____ _____    ______ ____
ROOT
ATOM      1  C   UNL     1      -2.073  47.331   8.698  0.00  0.00    +0.074 C 
ENDROOT
BRANCH   1   2
ATOM      2  C   UNL     1      -1.148  47.838   7.625  0.00  0.00    +0.059 A 
ATOM      3  C   UNL     1      -0.883  47.288   6.386  0.00  0.00    +0.256 A 
ATOM      4  C   UNL     1      -0.307  48.934   7.674  0.00  0.00    +0.141 A 
ATOM      5  C   UNL     1      -0.160  49.904   8.800  0.00  0.00    +0.089 C 
ATOM      6  N   UNL     1       0.045  48.023   5.746  0.00  0.00    -0.040 NA
ATOM      7  O   UNL     1       0.366  49.000   6.546  0.00  0.00    -0.356 OA
BRANCH   3   8
ATOM      8  O   UNL     1      -1.458  46.142   5.844  0.00  0.00    -0.490 OA
ATOM      9  H   UNL     1      -1.755  46.106   4.876  0.00  0.00    +0.294 HD
ENDBRANCH   3   8
ENDBRANCH   1   2
BRANCH   1  10
ATOM     10  CA  UNL     1      -1.698  45.911   9.158  0.00  0.00    +0.165 C 
BRANCH  10  11
ATOM     11  N   UNL     1      -2.549  44.912   8.507  0.00  0.00    -0.318 NA
ATOM     12  H1  UNL     1      -3.396  44.759   9.101  0.00  0.00    +0.119 HD
ATOM     13  H2  UNL     1      -2.908  45.315   7.611  0.00  0.00    +0.119 HD
ENDBRANCH  10  11
BRANCH  10  14
ATOM     14  C   UNL     1      -1.858  45.815  10.649  0.00  0.00    +0.322 C 
ATOM     15  O   UNL     1      -1.305  44.877  11.284  0.00  0.00    -0.249 OA
BRANCH  14  16
ATOM     16  OXT UNL     1      -2.592  46.779  11.334  0.00  0.00    -0.480 OA
ATOM     17  HXT UNL     1      -2.987  46.580  12.246  0.00  0.00    +0.295 HD
ENDBRANCH  14  16
ENDBRANCH  10  14
ENDBRANCH   1  10
TORSDOF 6
ENDMDL
MODEL 11
REMARK VINA RESULT:    -5.002      2.215      4.769
REMARK INTER + INTRA:          -6.785
REMARK INTER:                  -6.420
REMARK INTRA:                  -0.365
REMARK UNBOUND:                -0.467
REMARK  Name = AMQ
REMARK  7 active torsions:
REMARK  status: ('A' for Active; 'I' for Inactive)
REMARK    1  A    between atoms: N_1  and  CA_2
REMARK    2  A    between atoms: CA_2  and  C_3
REMARK    3  A    between atoms: CA_2  and  C_6
REMARK    4  A    between atoms: C_3  and  OXT_5
REMARK    5  A    between atoms: C_6  and  C_7
REMARK    6  A    between atoms: C_8  and  O_11
REMARK    7  A    between atoms: C_9  and  C_10
REMARK                            x       y       z     vdW  Elec       q    Type
REMARK                         _______ _______ _______ _____ _____    ______ ____
ROOT
ATOM      1  C   UNL     1      -2.311  47.425   6.598  0.00  0.00    +0.074 C 
ENDROOT
BRANCH   1   2
ATOM      2  C   UNL     1      -1.800  48.488   7.534  0.00  0.00    +0.059 A 
ATOM      3  C   UNL     1      -0.563  49.101   7.548  0.00  0.00    +0.256 A 
ATOM      4  C   UNL     1      -2.441  49.036   8.630  0.00  0.00    +0.141 A 
ATOM      5  C   UNL     1      -3.820  48.727   9.112  0.00  0.00    +0.089 C 
ATOM      6  N   UNL     1      -0.489  49.963   8.579  0.00  0.00    -0.040 NA
ATOM      7  O   UNL     1      -1.630  49.897   9.204  0.00  0.00    -0.356 OA
BRANCH   3   8
ATOM      8  O   UNL     1       0.483  48.886   6.655  0.00  0.00    -0.490 OA
ATOM      9  H   UNL     1       1.441  49.106   6.899  0.00  0.00    +0.294 HD
ENDBRANCH   3   8
ENDBRANCH   1   2
BRANCH   1  10
ATOM     10  CA  UNL     1      -1.618  46.071   6.833  0.00  0.00    +0.165 C 
BRANCH  10  11
ATOM     11  N   UNL     1      -0.402  45.961   6.024  0.00  0.00    -0.318 NA
ATOM     12  H1  UNL     1      -0.370  46.770   5.363  0.00  0.00    +0.119 HD
ATOM     13  H2  UNL     1       0.426  46.083   6.652  0.00  0.00    +0.119 HD
ENDBRANCH  10  11
BRANCH  10  14
ATOM     14  C   UNL     1      -2.565  44.961   6.474  0.00  0.00    +0.322 C 
ATOM     15  O   UNL     1      -2.942  44.815   5.279  0.00  0.00    -0.249 OA
BRANCH  14  16
ATOM     16  OXT UNL     1      -3.003  44.074   7.453  0.00  0.00    -0.480 OA
ATOM     17  HXT UNL     1      -2.353  43.671   8.117  0.00  0.00    +0.295 HD
ENDBRANCH  14  16
ENDBRANCH  10  14
ENDBRANCH   1  10
TORSDOF 6
ENDMDL
MODEL 12
REMARK VINA RESULT:    -4.983      4.303      6.533
REMARK INTER + INTRA:          -6.761
REMARK INTER:                  -6.237
REMARK INTRA:                  -0.524
REMARK UNBOUND:                -0.467
REMARK  Name = AMQ
REMARK  7 active torsions:
REMARK  status: ('A' for Active; 'I' for Inactive)
REMARK    1  A    between atoms: N_1  and  CA_2
REMARK    2  A    between atoms: CA_2  and  C_3
REMARK    3  A    between atoms: CA_2  and  C_6
REMARK    4  A    between atoms: C_3  and  OXT_5
REMARK    5  A    between atoms: C_6  and  C_7
REMARK    6  A    between atoms: C_8  and  O_11
REMARK    7  A    between atoms: C_9  and  C_10
REMARK                            x       y       z     vdW  Elec       q    Type
REMARK                         _______ _______ _______ _____ _____    ______ ____
ROOT
ATOM      1  C   UNL     1      -3.111  47.035  11.424  0.00  0.00    +0.074 C 
ENDROOT
BRANCH   1   2
ATOM      2  C   UNL     1      -2.416  47.955  12.390  0.00  0.00    +0.059 A 
ATOM      3  C   UNL     1      -2.630  48.101  13.747  0.00  0.00    +0.256 A 
ATOM      4  C   UNL     1      -1.453  48.908  12.115  0.00  0.00    +0.141 A 
ATOM      5  C   UNL     1      -0.842  49.210  10.786  0.00  0.00    +0.089 C 
ATOM      6  N   UNL     1      -1.833  49.069  14.236  0.00  0.00    -0.040 NA
ATOM      7  O   UNL     1      -1.143  49.528  13.232  0.00  0.00    -0.356 OA
BRANCH   3   8
ATOM      8  O   UNL     1      -3.530  47.383  14.528  0.00  0.00    -0.490 OA
ATOM      9  H   UNL     1      -4.531  47.470  14.399  0.00  0.00    +0.294 HD
ENDBRANCH   3   8
ENDBRANCH   1   2
BRANCH   1  10
ATOM     10  CA  UNL     1      -2.389  45.681  11.298  0.00  0.00    +0.165 C 
BRANCH  10  11
ATOM     11  N   UNL     1      -2.090  45.380   9.895  0.00  0.00    -0.318 NA
ATOM     12  H1  UNL     1      -2.459  44.427   9.675  0.00  0.00    +0.119 HD
ATOM     13  H2  UNL     1      -2.637  46.036   9.292  0.00  0.00    +0.119 HD
ENDBRANCH  10  11
BRANCH  10  14
ATOM     14  C   UNL     1      -3.260  44.600  11.871  0.00  0.00    +0.322 C 
ATOM     15  O   UNL     1      -3.450  43.533  11.226  0.00  0.00    -0.249 OA
BRANCH  14  16
ATOM     16  OXT UNL     1      -3.836  44.762  13.128  0.00  0.00    -0.480 OA
ATOM     17  HXT UNL     1      -4.587  44.157  13.437  0.00  0.00    +0.295 HD
ENDBRANCH  14  16
ENDBRANCH  10  14
ENDBRANCH   1  10
TORSDOF 6
ENDMDL
MODEL 13
REMARK VINA RESULT:    -4.976      4.354      5.738
REMARK INTER + INTRA:          -6.752
REMARK INTER:                  -6.427
REMARK INTRA:                  -0.325
REMARK UNBOUND:                -0.467
REMARK  Name = AMQ
REMARK  7 active torsions:
REMARK  status: ('A' for Active; 'I' for Inactive)
REMARK    1  A    between atoms: N_1  and  CA_2
REMARK    2  A    between atoms: CA_2  and  C_3
REMARK    3  A    between atoms: CA_2  and  C_6
REMARK    4  A    between atoms: C_3  and  OXT_5
REMARK    5  A    between atoms: C_6  and  C_7
REMARK    6  A    between atoms: C_8  and  O_11
REMARK    7  A    between atoms: C_9  and  C_10
REMARK                            x       y       z     vdW  Elec       q    Type
REMARK                         _______ _______ _______ _____ _____    ______ ____
ROOT
ATOM      1  C   UNL     1      -2.884  48.501  12.344  0.00  0.00    +0.074 C 
ENDROOT
BRANCH   1   2
ATOM      2  C   UNL     1      -2.837  47.073  12.815  0.00  0.00    +0.059 A 
ATOM      3  C   UNL     1      -3.318  46.538  13.994  0.00  0.00    +0.256 A 
ATOM      4  C   UNL     1      -2.238  45.992  12.195  0.00  0.00    +0.141 A 
ATOM      5  C   UNL     1      -1.535  45.988  10.878  0.00  0.00    +0.089 C 
ATOM      6  N   UNL     1      -3.031  45.225  14.054  0.00  0.00    -0.040 NA
ATOM      7  O   UNL     1      -2.385  44.933  12.961  0.00  0.00    -0.356 OA
BRANCH   3   8
ATOM      8  O   UNL     1      -3.997  47.219  15.000  0.00  0.00    -0.490 OA
ATOM      9  H   UNL     1      -3.553  47.959  15.532  0.00  0.00    +0.294 HD
ENDBRANCH   3   8
ENDBRANCH   1   2
BRANCH   1  10
ATOM     10  CA  UNL     1      -1.881  49.391  13.102  0.00  0.00    +0.165 C 
BRANCH  10  11
ATOM     11  N   UNL     1      -2.544  50.584  13.635  0.00  0.00    -0.318 NA
ATOM     12  H1  UNL     1      -3.570  50.502  13.454  0.00  0.00    +0.119 HD
ATOM     13  H2  UNL     1      -2.444  50.581  14.676  0.00  0.00    +0.119 HD
ENDBRANCH  10  11
BRANCH  10  14
ATOM     14  C   UNL     1      -0.778  49.801  12.168  0.00  0.00    +0.322 C 
ATOM     15  O   UNL     1      -0.844  49.504  10.945  0.00  0.00    -0.249 OA
BRANCH  14  16
ATOM     16  OXT UNL     1       0.303  50.535  12.647  0.00  0.00    -0.480 OA
ATOM     17  HXT UNL     1       0.885  51.073  12.016  0.00  0.00    +0.295 HD
ENDBRANCH  14  16
ENDBRANCH  10  14
ENDBRANCH   1  10
TORSDOF 6
ENDMDL
MODEL 14
REMARK VINA RESULT:    -4.926      3.453      3.972
REMARK INTER + INTRA:          -6.688
REMARK INTER:                  -6.189
REMARK INTRA:                  -0.500
REMARK UNBOUND:                -0.467
REMARK  Name = AMQ
REMARK  7 active torsions:
REMARK  status: ('A' for Active; 'I' for Inactive)
REMARK    1  A    between atoms: N_1  and  CA_2
REMARK    2  A    between atoms: CA_2  and  C_3
REMARK    3  A    between atoms: CA_2  and  C_6
REMARK    4  A    between atoms: C_3  and  OXT_5
REMARK    5  A    between atoms: C_6  and  C_7
REMARK    6  A    between atoms: C_8  and  O_11
REMARK    7  A    between atoms: C_9  and  C_10
REMARK                            x       y       z     vdW  Elec       q    Type
REMARK                         _______ _______ _______ _____ _____    ______ ____
ROOT
ATOM      1  C   UNL     1      -1.414  47.564  10.879  0.00  0.00    +0.074 C 
ENDROOT
BRANCH   1   2
ATOM      2  C   UNL     1      -0.993  47.016   9.543  0.00  0.00    +0.059 A 
ATOM      3  C   UNL     1      -0.352  45.825   9.263  0.00  0.00    +0.256 A 
ATOM      4  C   UNL     1      -1.097  47.621   8.304  0.00  0.00    +0.141 A 
ATOM      5  C   UNL     1      -1.703  48.952   8.002  0.00  0.00    +0.089 C 
ATOM      6  N   UNL     1      -0.109  45.733   7.942  0.00  0.00    -0.040 NA
ATOM      7  O   UNL     1      -0.569  46.825   7.401  0.00  0.00    -0.356 OA
BRANCH   3   8
ATOM      8  O   UNL     1       0.014  44.843  10.178  0.00  0.00    -0.490 OA
ATOM      9  H   UNL     1       0.890  44.341  10.094  0.00  0.00    +0.294 HD
ENDBRANCH   3   8
ENDBRANCH   1   2
BRANCH   1  10
ATOM     10  CA  UNL     1      -2.664  46.851  11.426  0.00  0.00    +0.165 C 
BRANCH  10  11
ATOM     11  N   UNL     1      -3.680  47.823  11.836  0.00  0.00    -0.318 NA
ATOM     12  H1  UNL     1      -3.916  47.654  12.839  0.00  0.00    +0.119 HD
ATOM     13  H2  UNL     1      -3.255  48.778  11.808  0.00  0.00    +0.119 HD
ENDBRANCH  10  11
BRANCH  10  14
ATOM     14  C   UNL     1      -2.276  46.001  12.602  0.00  0.00    +0.322 C 
ATOM     15  O   UNL     1      -1.989  44.785  12.436  0.00  0.00    -0.249 OA
BRANCH  14  16
ATOM     16  OXT UNL     1      -2.202  46.564  13.874  0.00  0.00    -0.480 OA
ATOM     17  HXT UNL     1      -2.725  46.170  14.647  0.00  0.00    +0.295 HD
ENDBRANCH  14  16
ENDBRANCH  10  14
ENDBRANCH   1  10
TORSDOF 6
ENDMDL
MODEL 15
REMARK VINA RESULT:    -4.871      3.958      4.798
REMARK INTER + INTRA:          -6.620
REMARK INTER:                  -6.247
REMARK INTRA:                  -0.373
REMARK UNBOUND:                -0.467
REMARK  Name = AMQ
REMARK  7 active torsions:
REMARK  status: ('A' for Active; 'I' for Inactive)
REMARK    1  A    between atoms: N_1  and  CA_2
REMARK    2  A    between atoms: CA_2  and  C_3
REMARK    3  A    between atoms: CA_2  and  C_6
REMARK    4  A    between atoms: C_3  and  OXT_5
REMARK    5  A    between atoms: C_6  and  C_7
REMARK    6  A    between atoms: C_8  and  O_11
REMARK    7  A    between atoms: C_9  and  C_10
REMARK                            x       y       z     vdW  Elec       q    Type
REMARK                         _______ _______ _______ _____ _____    ______ ____
ROOT
ATOM      1  C   UNL     1      -2.835  46.313  10.821  0.00  0.00    +0.074 C 
ENDROOT
BRANCH   1   2
ATOM      2  C   UNL     1      -1.785  46.600   9.782  0.00  0.00    +0.059 A 
ATOM      3  C   UNL     1      -1.467  45.870   8.654  0.00  0.00    +0.256 A 
ATOM      4  C   UNL     1      -0.860  47.628   9.768  0.00  0.00    +0.141 A 
ATOM      5  C   UNL     1      -0.724  48.727  10.770  0.00  0.00    +0.089 C 
ATOM      6  N   UNL     1      -0.430  46.442   8.013  0.00  0.00    -0.040 NA
ATOM      7  O   UNL     1      -0.094  47.491   8.708  0.00  0.00    -0.356 OA
BRANCH   3   8
ATOM      8  O   UNL     1      -2.091  44.708   8.212  0.00  0.00    -0.490 OA
ATOM      9  H   UNL     1      -2.039  43.844   8.739  0.00  0.00    +0.294 HD
ENDBRANCH   3   8
ENDBRANCH   1   2
BRANCH   1  10
ATOM     10  CA  UNL     1      -2.449  45.120  11.715  0.00  0.00    +0.165 C 
BRANCH  10  11
ATOM     11  N   UNL     1      -3.101  43.892  11.254  0.00  0.00    -0.318 NA
ATOM     12  H1  UNL     1      -3.599  43.457  12.063  0.00  0.00    +0.119 HD
ATOM     13  H2  UNL     1      -3.852  44.152  10.574  0.00  0.00    +0.119 HD
ENDBRANCH  10  11
BRANCH  10  14
ATOM     14  C   UNL     1      -2.860  45.408  13.131  0.00  0.00    +0.322 C 
ATOM     15  O   UNL     1      -3.829  44.788  13.646  0.00  0.00    -0.249 OA
BRANCH  14  16
ATOM     16  OXT UNL     1      -2.153  46.340  13.886  0.00  0.00    -0.480 OA
ATOM     17  HXT UNL     1      -1.957  46.173  14.865  0.00  0.00    +0.295 HD
ENDBRANCH  14  16
ENDBRANCH  10  14
ENDBRANCH   1  10
TORSDOF 6
ENDMDL
MODEL 16
REMARK VINA RESULT:    -4.866      4.173      5.394
REMARK INTER + INTRA:          -6.613
REMARK INTER:                  -6.102
REMARK INTRA:                  -0.512
REMARK UNBOUND:                -0.467
REMARK  Name = AMQ
REMARK  7 active torsions:
REMARK  status: ('A' for Active; 'I' for Inactive)
REMARK    1  A    between atoms: N_1  and  CA_2
REMARK    2  A    between atoms: CA_2  and  C_3
REMARK    3  A    between atoms: CA_2  and  C_6
REMARK    4  A    between atoms: C_3  and  OXT_5
REMARK    5  A    between atoms: C_6  and  C_7
REMARK    6  A    between atoms: C_8  and  O_11
REMARK    7  A    between atoms: C_9  and  C_10
REMARK                            x       y       z     vdW  Elec       q    Type
REMARK                         _______ _______ _______ _____ _____    ______ ____
ROOT
ATOM      1  C   UNL     1      -2.990  47.138  10.656  0.00  0.00    +0.074 C 
ENDROOT
BRANCH   1   2
ATOM      2  C   UNL     1      -3.299  45.774  11.210  0.00  0.00    +0.059 A 
ATOM      3  C   UNL     1      -3.522  44.596  10.524  0.00  0.00    +0.256 A 
ATOM      4  C   UNL     1      -3.495  45.416  12.531  0.00  0.00    +0.141 A 
ATOM      5  C   UNL     1      -3.395  46.304  13.727  0.00  0.00    +0.089 C 
ATOM      6  N   UNL     1      -3.816  43.609  11.390  0.00  0.00    -0.040 NA
ATOM      7  O   UNL     1      -3.790  44.136  12.581  0.00  0.00    -0.356 OA
BRANCH   3   8
ATOM      8  O   UNL     1      -3.469  44.413   9.145  0.00  0.00    -0.490 OA
ATOM      9  H   UNL     1      -3.965  43.656   8.692  0.00  0.00    +0.294 HD
ENDBRANCH   3   8
ENDBRANCH   1   2
BRANCH   1  10
ATOM     10  CA  UNL     1      -1.480  47.340  10.433  0.00  0.00    +0.165 C 
BRANCH  10  11
ATOM     11  N   UNL     1      -1.071  48.689  10.831  0.00  0.00    -0.318 NA
ATOM     12  H1  UNL     1      -1.803  49.084  11.464  0.00  0.00    +0.119 HD
ATOM     13  H2  UNL     1      -0.208  48.614  11.417  0.00  0.00    +0.119 HD
ENDBRANCH  10  11
BRANCH  10  14
ATOM     14  C   UNL     1      -1.161  47.125   8.980  0.00  0.00    +0.322 C 
ATOM     15  O   UNL     1       0.037  47.135   8.588  0.00  0.00    -0.249 OA
BRANCH  14  16
ATOM     16  OXT UNL     1      -2.187  46.884   8.070  0.00  0.00    -0.480 OA
ATOM     17  HXT UNL     1      -3.078  46.515   8.379  0.00  0.00    +0.295 HD
ENDBRANCH  14  16
ENDBRANCH  10  14
ENDBRANCH   1  10
TORSDOF 6
ENDMDL
MODEL 17
REMARK VINA RESULT:    -4.828      3.570      4.856
REMARK INTER + INTRA:          -6.565
REMARK INTER:                  -6.321
REMARK INTRA:                  -0.244
REMARK UNBOUND:                -0.467
REMARK  Name = AMQ
REMARK  7 active torsions:
REMARK  status: ('A' for Active; 'I' for Inactive)
REMARK    1  A    between atoms: N_1  and  CA_2
REMARK    2  A    between atoms: CA_2  and  C_3
REMARK    3  A    between atoms: CA_2  and  C_6
REMARK    4  A    between atoms: C_3  and  OXT_5
REMARK    5  A    between atoms: C_6  and  C_7
REMARK    6  A    between atoms: C_8  and  O_11
REMARK    7  A    between atoms: C_9  and  C_10
REMARK                            x       y       z     vdW  Elec       q    Type
REMARK                         _______ _______ _______ _____ _____    ______ ____
ROOT
ATOM      1  C   UNL     1      -2.678  48.078  11.191  0.00  0.00    +0.074 C 
ENDROOT
BRANCH   1   2
ATOM      2  C   UNL     1      -2.347  46.710  11.725  0.00  0.00    +0.059 A 
ATOM      3  C   UNL     1      -1.856  45.615  11.043  0.00  0.00    +0.256 A 
ATOM      4  C   UNL     1      -2.528  46.232  13.010  0.00  0.00    +0.141 A 
ATOM      5  C   UNL     1      -3.055  46.988  14.184  0.00  0.00    +0.089 C 
ATOM      6  N   UNL     1      -1.744  44.565  11.878  0.00  0.00    -0.040 NA
ATOM      7  O   UNL     1      -2.154  44.972  13.046  0.00  0.00    -0.356 OA
BRANCH   3   8
ATOM      8  O   UNL     1      -1.521  45.557   9.694  0.00  0.00    -0.490 OA
ATOM      9  H   UNL     1      -0.676  45.096   9.376  0.00  0.00    +0.294 HD
ENDBRANCH   3   8
ENDBRANCH   1   2
BRANCH   1  10
ATOM     10  CA  UNL     1      -1.429  48.974  11.090  0.00  0.00    +0.165 C 
BRANCH  10  11
ATOM     11  N   UNL     1      -1.120  49.582  12.387  0.00  0.00    -0.318 NA
ATOM     12  H1  UNL     1      -1.891  50.242  12.636  0.00  0.00    +0.119 HD
ATOM     13  H2  UNL     1      -1.147  48.835  13.118  0.00  0.00    +0.119 HD
ENDBRANCH  10  11
BRANCH  10  14
ATOM     14  C   UNL     1      -1.674  50.052  10.073  0.00  0.00    +0.322 C 
ATOM     15  O   UNL     1      -1.206  49.939   8.908  0.00  0.00    -0.249 OA
BRANCH  14  16
ATOM     16  OXT UNL     1      -2.444  51.162  10.407  0.00  0.00    -0.480 OA
ATOM     17  HXT UNL     1      -3.200  51.087  11.077  0.00  0.00    +0.295 HD
ENDBRANCH  14  16
ENDBRANCH  10  14
ENDBRANCH   1  10
TORSDOF 6
ENDMDL
MODEL 18
REMARK VINA RESULT:    -4.736      2.305      2.977
REMARK INTER + INTRA:          -6.448
REMARK INTER:                  -6.308
REMARK INTRA:                  -0.140
REMARK UNBOUND:                -0.467
REMARK  Name = AMQ
REMARK  7 active torsions:
REMARK  status: ('A' for Active; 'I' for Inactive)
REMARK    1  A    between atoms: N_1  and  CA_2
REMARK    2  A    between atoms: CA_2  and  C_3
REMARK    3  A    between atoms: CA_2  and  C_6
REMARK    4  A    between atoms: C_3  and  OXT_5
REMARK    5  A    between atoms: C_6  and  C_7
REMARK    6  A    between atoms: C_8  and  O_11
REMARK    7  A    between atoms: C_9  and  C_10
REMARK                            x       y       z     vdW  Elec       q    Type
REMARK                         _______ _______ _______ _____ _____    ______ ____
ROOT
ATOM      1  C   UNL     1      -1.643  48.782   8.100  0.00  0.00    +0.074 C 
ENDROOT
BRANCH   1   2
ATOM      2  C   UNL     1      -1.622  47.290   8.297  0.00  0.00    +0.059 A 
ATOM      3  C   UNL     1      -1.318  46.304   7.379  0.00  0.00    +0.256 A 
ATOM      4  C   UNL     1      -1.970  46.576   9.429  0.00  0.00    +0.141 A 
ATOM      5  C   UNL     1      -2.405  47.134  10.744  0.00  0.00    +0.089 C 
ATOM      6  N   UNL     1      -1.467  45.091   7.943  0.00  0.00    -0.040 NA
ATOM      7  O   UNL     1      -1.856  45.293   9.169  0.00  0.00    -0.356 OA
BRANCH   3   8
ATOM      8  O   UNL     1      -0.923  46.490   6.058  0.00  0.00    -0.490 OA
ATOM      9  H   UNL     1      -1.483  46.152   5.285  0.00  0.00    +0.294 HD
ENDBRANCH   3   8
ENDBRANCH   1   2
BRANCH   1  10
ATOM     10  CA  UNL     1      -0.226  49.384   8.115  0.00  0.00    +0.165 C 
BRANCH  10  11
ATOM     11  N   UNL     1       0.536  48.952   6.941  0.00  0.00    -0.318 NA
ATOM     12  H1  UNL     1       0.214  47.995   6.671  0.00  0.00    +0.119 HD
ATOM     13  H2  UNL     1       0.280  49.568   6.136  0.00  0.00    +0.119 HD
ENDBRANCH  10  11
BRANCH  10  14
ATOM     14  C   UNL     1       0.484  48.947   9.365  0.00  0.00    +0.322 C 
ATOM     15  O   UNL     1       1.237  47.936   9.344  0.00  0.00    -0.249 OA
BRANCH  14  16
ATOM     16  OXT UNL     1       0.336  49.676  10.542  0.00  0.00    -0.480 OA
ATOM     17  HXT UNL     1       1.137  50.103  10.993  0.00  0.00    +0.295 HD
ENDBRANCH  14  16
ENDBRANCH  10  14
ENDBRANCH   1  10
TORSDOF 6
ENDMDL
MODEL 19
REMARK VINA RESULT:    -4.723      3.409      4.115
REMARK INTER + INTRA:          -6.432
REMARK INTER:                  -6.243
REMARK INTRA:                  -0.189
REMARK UNBOUND:                -0.467
REMARK  Name = AMQ
REMARK  7 active torsions:
REMARK  status: ('A' for Active; 'I' for Inactive)
REMARK    1  A    between atoms: N_1  and  CA_2
REMARK    2  A    between atoms: CA_2  and  C_3
REMARK    3  A    between atoms: CA_2  and  C_6
REMARK    4  A    between atoms: C_3  and  OXT_5
REMARK    5  A    between atoms: C_6  and  C_7
REMARK    6  A    between atoms: C_8  and  O_11
REMARK    7  A    between atoms: C_9  and  C_10
REMARK                            x       y       z     vdW  Elec       q    Type
REMARK                         _______ _______ _______ _____ _____    ______ ____
ROOT
ATOM      1  C   UNL     1      -0.791  46.257   9.557  0.00  0.00    +0.074 C 
ENDROOT
BRANCH   1   2
ATOM      2  C   UNL     1      -0.821  46.270   8.053  0.00  0.00    +0.059 A 
ATOM      3  C   UNL     1      -0.498  45.253   7.176  0.00  0.00    +0.256 A 
ATOM      4  C   UNL     1      -1.118  47.330   7.216  0.00  0.00    +0.141 A 
ATOM      5  C   UNL     1      -1.527  48.707   7.623  0.00  0.00    +0.089 C 
ATOM      6  N   UNL     1      -0.611  45.687   5.907  0.00  0.00    -0.040 NA
ATOM      7  O   UNL     1      -0.984  46.934   5.970  0.00  0.00    -0.356 OA
BRANCH   3   8
ATOM      8  O   UNL     1      -0.101  43.962   7.509  0.00  0.00    -0.490 OA
ATOM      9  H   UNL     1       0.138  43.281   6.799  0.00  0.00    +0.294 HD
ENDBRANCH   3   8
ENDBRANCH   1   2
BRANCH   1  10
ATOM     10  CA  UNL     1      -2.206  46.294  10.162  0.00  0.00    +0.165 C 
BRANCH  10  11
ATOM     11  N   UNL     1      -2.316  47.358  11.163  0.00  0.00    -0.318 NA
ATOM     12  H1  UNL     1      -2.888  47.003  11.963  0.00  0.00    +0.119 HD
ATOM     13  H2  UNL     1      -1.366  47.538  11.560  0.00  0.00    +0.119 HD
ENDBRANCH  10  11
BRANCH  10  14
ATOM     14  C   UNL     1      -2.507  44.967  10.800  0.00  0.00    +0.322 C 
ATOM     15  O   UNL     1      -3.394  44.218  10.311  0.00  0.00    -0.249 OA
BRANCH  14  16
ATOM     16  OXT UNL     1      -1.784  44.551  11.915  0.00  0.00    -0.480 OA
ATOM     17  HXT UNL     1      -2.258  44.252  12.759  0.00  0.00    +0.295 HD
ENDBRANCH  14  16
ENDBRANCH  10  14
ENDBRANCH   1  10
TORSDOF 6
ENDMDL
MODEL 20
REMARK VINA RESULT:    -4.682      3.177      4.979
REMARK INTER + INTRA:          -6.381
REMARK INTER:                  -5.875
REMARK INTRA:                  -0.505
REMARK UNBOUND:                -0.467
REMARK  Name = AMQ
REMARK  7 active torsions:
REMARK  status: ('A' for Active; 'I' for Inactive)
REMARK    1  A    between atoms: N_1  and  CA_2
REMARK    2  A    between atoms: CA_2  and  C_3
REMARK    3  A    between atoms: CA_2  and  C_6
REMARK    4  A    between atoms: C_3  and  OXT_5
REMARK    5  A    between atoms: C_6  and  C_7
REMARK    6  A    between atoms: C_8  and  O_11
REMARK    7  A    between atoms: C_9  and  C_10
REMARK                            x       y       z     vdW  Elec       q    Type
REMARK                         _______ _______ _______ _____ _____    ______ ____
ROOT
ATOM      1  C   UNL     1      -2.119  47.623  10.347  0.00  0.00    +0.074 C 
ENDROOT
BRANCH   1   2
ATOM      2  C   UNL     1      -1.103  48.699  10.619  0.00  0.00    +0.059 A 
ATOM      3  C   UNL     1      -0.831  49.346  11.808  0.00  0.00    +0.256 A 
ATOM      4  C   UNL     1      -0.262  49.323   9.716  0.00  0.00    +0.141 A 
ATOM      5  C   UNL     1      -0.137  49.034   8.256  0.00  0.00    +0.089 C 
ATOM      6  N   UNL     1       0.118  50.281  11.615  0.00  0.00    -0.040 NA
ATOM      7  O   UNL     1       0.434  50.238  10.353  0.00  0.00    -0.356 OA
BRANCH   3   8
ATOM      8  O   UNL     1      -1.430  49.107  13.041  0.00  0.00    -0.490 OA
ATOM      9  H   UNL     1      -1.400  49.793  13.786  0.00  0.00    +0.294 HD
ENDBRANCH   3   8
ENDBRANCH   1   2
BRANCH   1  10
ATOM     10  CA  UNL     1      -1.525  46.213  10.521  0.00  0.00    +0.165 C 
BRANCH  10  11
ATOM     11  N   UNL     1      -1.729  45.410   9.312  0.00  0.00    -0.318 NA
ATOM     12  H1  UNL     1      -2.706  45.561   8.975  0.00  0.00    +0.119 HD
ATOM     13  H2  UNL     1      -1.112  45.788   8.556  0.00  0.00    +0.119 HD
ENDBRANCH  10  11
BRANCH  10  14
ATOM     14  C   UNL     1      -2.183  45.539  11.691  0.00  0.00    +0.322 C 
ATOM     15  O   UNL     1      -2.343  46.166  12.773  0.00  0.00    -0.249 OA
BRANCH  14  16
ATOM     16  OXT UNL     1      -2.645  44.231  11.572  0.00  0.00    -0.480 OA
ATOM     17  HXT UNL     1      -3.177  43.941  10.761  0.00  0.00    +0.295 HD
ENDBRANCH  14  16
ENDBRANCH  10  14
ENDBRANCH   1  10
TORSDOF 6
ENDMDL
