MODEL 16
REMARK VINA RESULT:    -5.026      1.627      2.343
REMARK INTER + INTRA:          -6.079
REMARK INTER:                  -5.814
REMARK INTRA:                  -0.265
REMARK UNBOUND:                -0.024
REMARK  Name = BGC
REMARK  6 active torsions:
REMARK  status: ('A' for Active; 'I' for Inactive)
REMARK    1  A    between atoms: C_1  and  O_8
REMARK    2  A    between atoms: C_2  and  O_9
REMARK    3  A    between atoms: C_3  and  O_10
REMARK    4  A    between atoms: C_4  and  C_5
REMARK    5  A    between atoms: C_5  and  O_12
REMARK    6  A    between atoms: C_6  and  O_7
REMARK                            x       y       z     vdW  Elec       q    Type
REMARK                         _______ _______ _______ _____ _____    ______ ____
ROOT
ATOM      1  C   UNL     1      48.304   8.179  27.152  0.00  0.00    +0.201 C 
ATOM      2  C   UNL     1      47.908   9.064  25.958  0.00  0.00    +0.179 C 
ATOM      3  C   UNL     1      46.708   9.957  26.323  0.00  0.00    +0.177 C 
ATOM      4  C   UNL     1      45.573   9.158  27.012  0.00  0.00    +0.178 C 
ATOM      5  C   UNL     1      47.077   7.441  27.720  0.00  0.00    +0.279 C 
ATOM      6  O   UNL     1      46.024   8.326  28.076  0.00  0.00    -0.341 OA
ENDROOT
BRANCH   5   7
ATOM      7  O   UNL     1      46.620   6.444  26.843  0.00  0.00    -0.365 OA
ATOM      8  H   UNL     1      46.262   6.905  26.039  0.00  0.00    +0.213 HD
ENDBRANCH   5   7
BRANCH   1   9
ATOM      9  O   UNL     1      48.876   8.964  28.168  0.00  0.00    -0.384 OA
ATOM     10  H   UNL     1      48.469   9.868  28.098  0.00  0.00    +0.210 HD
ENDBRANCH   1   9
BRANCH   2  11
ATOM     11  O   UNL     1      47.591   8.273  24.841  0.00  0.00    -0.386 OA
ATOM     12  H   UNL     1      48.444   8.094  24.363  0.00  0.00    +0.210 HD
ENDBRANCH   2  11
BRANCH   3  13
ATOM     13  O   UNL     1      47.127  10.982  27.189  0.00  0.00    -0.386 OA
ATOM     14  H   UNL     1      46.629  10.866  28.039  0.00  0.00    +0.210 HD
ENDBRANCH   3  13
BRANCH   4  15
ATOM     15  C   UNL     1      44.643   8.425  26.025  0.00  0.00    +0.190 C 
BRANCH  15  16
ATOM     16  O   UNL     1      44.588   9.129  24.814  0.00  0.00    -0.392 OA
ATOM     17  H   UNL     1      45.493   9.059  24.413  0.00  0.00    +0.210 HD
ENDBRANCH  15  16
ENDBRANCH   4  15
TORSDOF 6
ENDMDL
