MODEL 15
REMARK VINA RESULT:    -5.049      1.477      3.067
REMARK INTER + INTRA:          -6.106
REMARK INTER:                  -6.061
REMARK INTRA:                  -0.046
REMARK UNBOUND:                -0.024
REMARK  Name = BGC
REMARK  6 active torsions:
REMARK  status: ('A' for Active; 'I' for Inactive)
REMARK    1  A    between atoms: C_1  and  O_8
REMARK    2  A    between atoms: C_2  and  O_9
REMARK    3  A    between atoms: C_3  and  O_10
REMARK    4  A    between atoms: C_4  and  C_5
REMARK    5  A    between atoms: C_5  and  O_12
REMARK    6  A    between atoms: C_6  and  O_7
REMARK                            x       y       z     vdW  Elec       q    Type
REMARK                         _______ _______ _______ _____ _____    ______ ____
ROOT
ATOM      1  C   UNL     1      46.555   8.447  27.722  0.00  0.00    +0.201 C 
ATOM      2  C   UNL     1      47.565   8.714  28.851  0.00  0.00    +0.179 C 
ATOM      3  C   UNL     1      47.931  10.208  28.906  0.00  0.00    +0.177 C 
ATOM      4  C   UNL     1      48.277  10.777  27.506  0.00  0.00    +0.178 C 
ATOM      5  C   UNL     1      47.041   9.059  26.394  0.00  0.00    +0.279 C 
ATOM      6  O   UNL     1      47.321  10.447  26.503  0.00  0.00    -0.341 OA
ENDROOT
BRANCH   5   7
ATOM      7  O   UNL     1      48.147   8.364  25.877  0.00  0.00    -0.365 OA
ATOM      8  H   UNL     1      48.727   8.126  26.647  0.00  0.00    +0.213 HD
ENDBRANCH   5   7
BRANCH   1   9
ATOM      9  O   UNL     1      45.305   9.000  28.049  0.00  0.00    -0.384 OA
ATOM     10  H   UNL     1      45.391   9.985  27.952  0.00  0.00    +0.210 HD
ENDBRANCH   1   9
BRANCH   2  11
ATOM     11  O   UNL     1      48.725   7.944  28.667  0.00  0.00    -0.386 OA
ATOM     12  H   UNL     1      48.798   7.339  29.452  0.00  0.00    +0.210 HD
ENDBRANCH   2  11
BRANCH   3  13
ATOM     13  O   UNL     1      46.854  10.940  29.436  0.00  0.00    -0.386 OA
ATOM     14  H   UNL     1      46.152  10.285  29.687  0.00  0.00    +0.210 HD
ENDBRANCH   3  13
BRANCH   4  15
ATOM     15  C   UNL     1      49.730  10.504  27.068  0.00  0.00    +0.190 C 
BRANCH  15  16
ATOM     16  O   UNL     1      50.608  11.298  27.818  0.00  0.00    -0.392 OA
ATOM     17  H   UNL     1      50.117  11.550  28.642  0.00  0.00    +0.210 HD
ENDBRANCH  15  16
ENDBRANCH   4  15
TORSDOF 6
ENDMDL
