MODEL 5
REMARK VINA RESULT:    -5.530      1.126      2.892
REMARK INTER + INTRA:          -6.686
REMARK INTER:                  -6.481
REMARK INTRA:                  -0.205
REMARK UNBOUND:                -0.024
REMARK  Name = BGC
REMARK  6 active torsions:
REMARK  status: ('A' for Active; 'I' for Inactive)
REMARK    1  A    between atoms: C_1  and  O_8
REMARK    2  A    between atoms: C_2  and  O_9
REMARK    3  A    between atoms: C_3  and  O_10
REMARK    4  A    between atoms: C_4  and  C_5
REMARK    5  A    between atoms: C_5  and  O_12
REMARK    6  A    between atoms: C_6  and  O_7
REMARK                            x       y       z     vdW  Elec       q    Type
REMARK                         _______ _______ _______ _____ _____    ______ ____
ROOT
ATOM      1  C   UNL     1      47.754  10.566  28.474  0.00  0.00    +0.201 C 
ATOM      2  C   UNL     1      46.473   9.937  27.902  0.00  0.00    +0.179 C 
ATOM      3  C   UNL     1      46.740   8.494  27.438  0.00  0.00    +0.177 C 
ATOM      4  C   UNL     1      48.021   8.386  26.573  0.00  0.00    +0.178 C 
ATOM      5  C   UNL     1      48.935  10.391  27.499  0.00  0.00    +0.279 C 
ATOM      6  O   UNL     1      49.154   9.033  27.145  0.00  0.00    -0.341 OA
ENDROOT
BRANCH   5   7
ATOM      7  O   UNL     1      48.784  11.190  26.354  0.00  0.00    -0.365 OA
ATOM      8  H   UNL     1      49.154  12.085  26.573  0.00  0.00    +0.213 HD
ENDBRANCH   5   7
BRANCH   1   9
ATOM      9  O   UNL     1      48.083   9.964  29.701  0.00  0.00    -0.384 OA
ATOM     10  H   UNL     1      47.254   9.535  30.043  0.00  0.00    +0.210 HD
ENDBRANCH   1   9
BRANCH   2  11
ATOM     11  O   UNL     1      45.985  10.701  26.828  0.00  0.00    -0.386 OA
ATOM     12  H   UNL     1      46.777  11.057  26.344  0.00  0.00    +0.210 HD
ENDBRANCH   2  11
BRANCH   3  13
ATOM     13  O   UNL     1      46.880   7.655  28.557  0.00  0.00    -0.386 OA
ATOM     14  H   UNL     1      46.765   8.223  29.362  0.00  0.00    +0.210 HD
ENDBRANCH   3  13
BRANCH   4  15
ATOM     15  C   UNL     1      47.802   8.752  25.091  0.00  0.00    +0.190 C 
BRANCH  15  16
ATOM     16  O   UNL     1      46.538   8.312  24.677  0.00  0.00    -0.392 OA
ATOM     17  H   UNL     1      46.676   7.857  23.805  0.00  0.00    +0.210 HD
ENDBRANCH  15  16
ENDBRANCH   4  15
TORSDOF 6
ENDMDL
