MODEL 8
REMARK VINA RESULT:    -5.313      1.909      3.948
REMARK INTER + INTRA:          -6.425
REMARK INTER:                  -6.147
REMARK INTRA:                  -0.277
REMARK UNBOUND:                -0.024
REMARK  Name = BGC
REMARK  6 active torsions:
REMARK  status: ('A' for Active; 'I' for Inactive)
REMARK    1  A    between atoms: C_1  and  O_8
REMARK    2  A    between atoms: C_2  and  O_9
REMARK    3  A    between atoms: C_3  and  O_10
REMARK    4  A    between atoms: C_4  and  C_5
REMARK    5  A    between atoms: C_5  and  O_12
REMARK    6  A    between atoms: C_6  and  O_7
REMARK                            x       y       z     vdW  Elec       q    Type
REMARK                         _______ _______ _______ _____ _____    ______ ____
ROOT
ATOM      1  C   UNL     1      43.976   8.169  26.368  0.00  0.00    +0.201 C 
ATOM      2  C   UNL     1      44.605   9.322  25.566  0.00  0.00    +0.179 C 
ATOM      3  C   UNL     1      46.126   9.127  25.443  0.00  0.00    +0.177 C 
ATOM      4  C   UNL     1      46.783   8.779  26.803  0.00  0.00    +0.178 C 
ATOM      5  C   UNL     1      44.726   7.951  27.696  0.00  0.00    +0.279 C 
ATOM      6  O   UNL     1      46.117   7.736  27.509  0.00  0.00    -0.341 OA
ENDROOT
BRANCH   5   7
ATOM      7  O   UNL     1      44.498   9.004  28.598  0.00  0.00    -0.365 OA
ATOM      8  H   UNL     1      44.016   8.620  29.377  0.00  0.00    +0.213 HD
ENDBRANCH   5   7
BRANCH   1   9
ATOM      9  O   UNL     1      44.017   6.980  25.620  0.00  0.00    -0.384 OA
ATOM     10  H   UNL     1      44.702   7.108  24.911  0.00  0.00    +0.210 HD
ENDBRANCH   1   9
BRANCH   2  11
ATOM     11  O   UNL     1      44.329  10.556  26.178  0.00  0.00    -0.386 OA
ATOM     12  H   UNL     1      44.665  11.263  25.567  0.00  0.00    +0.210 HD
ENDBRANCH   2  11
BRANCH   3  13
ATOM     13  O   UNL     1      46.399   8.091  24.533  0.00  0.00    -0.386 OA
ATOM     14  H   UNL     1      45.940   8.321  23.684  0.00  0.00    +0.210 HD
ENDBRANCH   3  13
BRANCH   4  15
ATOM     15  C   UNL     1      47.077  10.010  27.683  0.00  0.00    +0.190 C 
BRANCH  15  16
ATOM     16  O   UNL     1      47.178  11.154  26.879  0.00  0.00    -0.392 OA
ATOM     17  H   UNL     1      46.420  11.109  26.240  0.00  0.00    +0.210 HD
ENDBRANCH  15  16
ENDBRANCH   4  15
TORSDOF 6
ENDMDL
