MODEL 4
REMARK VINA RESULT:    -5.611      1.310      2.387
REMARK INTER + INTRA:          -6.783
REMARK INTER:                  -6.554
REMARK INTRA:                  -0.229
REMARK UNBOUND:                -0.024
REMARK  Name = BGC
REMARK  6 active torsions:
REMARK  status: ('A' for Active; 'I' for Inactive)
REMARK    1  A    between atoms: C_1  and  O_8
REMARK    2  A    between atoms: C_2  and  O_9
REMARK    3  A    between atoms: C_3  and  O_10
REMARK    4  A    between atoms: C_4  and  C_5
REMARK    5  A    between atoms: C_5  and  O_12
REMARK    6  A    between atoms: C_6  and  O_7
REMARK                            x       y       z     vdW  Elec       q    Type
REMARK                         _______ _______ _______ _____ _____    ______ ____
ROOT
ATOM      1  C   UNL     1      48.065  10.653  28.254  0.00  0.00    +0.201 C 
ATOM      2  C   UNL     1      48.040   9.178  28.689  0.00  0.00    +0.179 C 
ATOM      3  C   UNL     1      48.763   8.298  27.653  0.00  0.00    +0.177 C 
ATOM      4  C   UNL     1      48.311   8.609  26.204  0.00  0.00    +0.178 C 
ATOM      5  C   UNL     1      47.578  10.805  26.799  0.00  0.00    +0.279 C 
ATOM      6  O   UNL     1      48.314   9.999  25.891  0.00  0.00    -0.341 OA
ENDROOT
BRANCH   5   7
ATOM      7  O   UNL     1      46.200  10.559  26.686  0.00  0.00    -0.365 OA
ATOM      8  H   UNL     1      46.087   9.840  26.010  0.00  0.00    +0.213 HD
ENDBRANCH   5   7
BRANCH   1   9
ATOM      9  O   UNL     1      49.369  11.167  28.355  0.00  0.00    -0.384 OA
ATOM     10  H   UNL     1      49.372  12.042  27.883  0.00  0.00    +0.210 HD
ENDBRANCH   1   9
BRANCH   2  11
ATOM     11  O   UNL     1      46.717   8.734  28.852  0.00  0.00    -0.386 OA
ATOM     12  H   UNL     1      46.240   9.433  29.373  0.00  0.00    +0.210 HD
ENDBRANCH   2  11
BRANCH   3  13
ATOM     13  O   UNL     1      50.151   8.501  27.745  0.00  0.00    -0.386 OA
ATOM     14  H   UNL     1      50.582   7.840  27.144  0.00  0.00    +0.210 HD
ENDBRANCH   3  13
BRANCH   4  15
ATOM     15  C   UNL     1      47.004   7.901  25.796  0.00  0.00    +0.190 C 
BRANCH  15  16
ATOM     16  O   UNL     1      46.621   8.316  24.514  0.00  0.00    -0.392 OA
ATOM     17  H   UNL     1      45.692   7.990  24.384  0.00  0.00    +0.210 HD
ENDBRANCH  15  16
ENDBRANCH   4  15
TORSDOF 6
ENDMDL
