MODEL 1
REMARK VINA RESULT:    -5.886      0.000      0.000
REMARK INTER + INTRA:          -7.115
REMARK INTER:                  -7.091
REMARK INTRA:                  -0.024
REMARK UNBOUND:                -0.024
REMARK  Name = BGC
REMARK  6 active torsions:
REMARK  status: ('A' for Active; 'I' for Inactive)
REMARK    1  A    between atoms: C_1  and  O_8
REMARK    2  A    between atoms: C_2  and  O_9
REMARK    3  A    between atoms: C_3  and  O_10
REMARK    4  A    between atoms: C_4  and  C_5
REMARK    5  A    between atoms: C_5  and  O_12
REMARK    6  A    between atoms: C_6  and  O_7
REMARK                            x       y       z     vdW  Elec       q    Type
REMARK                         _______ _______ _______ _____ _____    ______ ____
ROOT
ATOM      1  C   UNL     1      47.575  10.065  29.177  0.00  0.00    +0.201 C 
ATOM      2  C   UNL     1      48.653   9.938  28.086  0.00  0.00    +0.179 C 
ATOM      3  C   UNL     1      48.100  10.398  26.725  0.00  0.00    +0.177 C 
ATOM      4  C   UNL     1      46.714   9.778  26.417  0.00  0.00    +0.178 C 
ATOM      5  C   UNL     1      46.262   9.393  28.732  0.00  0.00    +0.279 C 
ATOM      6  O   UNL     1      45.785   9.893  27.491  0.00  0.00    -0.341 OA
ENDROOT
BRANCH   5   7
ATOM      7  O   UNL     1      46.382   7.994  28.697  0.00  0.00    -0.365 OA
ATOM      8  H   UNL     1      46.337   7.674  29.636  0.00  0.00    +0.213 HD
ENDBRANCH   5   7
BRANCH   1   9
ATOM      9  O   UNL     1      47.324  11.420  29.453  0.00  0.00    -0.384 OA
ATOM     10  H   UNL     1      47.687  11.602  30.360  0.00  0.00    +0.210 HD
ENDBRANCH   1   9
BRANCH   2  11
ATOM     11  O   UNL     1      49.106   8.611  27.993  0.00  0.00    -0.386 OA
ATOM     12  H   UNL     1      50.093   8.635  28.103  0.00  0.00    +0.210 HD
ENDBRANCH   2  11
BRANCH   3  13
ATOM     13  O   UNL     1      47.980  11.799  26.712  0.00  0.00    -0.386 OA
ATOM     14  H   UNL     1      47.419  12.035  25.928  0.00  0.00    +0.210 HD
ENDBRANCH   3  13
BRANCH   4  15
ATOM     15  C   UNL     1      46.787   8.354  25.832  0.00  0.00    +0.190 C 
BRANCH  15  16
ATOM     16  O   UNL     1      46.555   8.397  24.450  0.00  0.00    -0.392 OA
ATOM     17  H   UNL     1      46.386   9.349  24.228  0.00  0.00    +0.210 HD
ENDBRANCH  15  16
ENDBRANCH   4  15
TORSDOF 6
ENDMDL
