MODEL 17
REMARK VINA RESULT:    -4.985      1.548      2.699
REMARK INTER + INTRA:          -6.029
REMARK INTER:                  -5.752
REMARK INTRA:                  -0.276
REMARK UNBOUND:                -0.024
REMARK  Name = BGC
REMARK  6 active torsions:
REMARK  status: ('A' for Active; 'I' for Inactive)
REMARK    1  A    between atoms: C_1  and  O_8
REMARK    2  A    between atoms: C_2  and  O_9
REMARK    3  A    between atoms: C_3  and  O_10
REMARK    4  A    between atoms: C_4  and  C_5
REMARK    5  A    between atoms: C_5  and  O_12
REMARK    6  A    between atoms: C_6  and  O_7
REMARK                            x       y       z     vdW  Elec       q    Type
REMARK                         _______ _______ _______ _____ _____    ______ ____
ROOT
ATOM      1  C   UNL     1      46.878  10.129  27.150  0.00  0.00    +0.201 C 
ATOM      2  C   UNL     1      47.929   9.886  26.053  0.00  0.00    +0.179 C 
ATOM      3  C   UNL     1      47.713   8.512  25.393  0.00  0.00    +0.177 C 
ATOM      4  C   UNL     1      47.518   7.386  26.440  0.00  0.00    +0.178 C 
ATOM      5  C   UNL     1      46.808   8.933  28.118  0.00  0.00    +0.279 C 
ATOM      6  O   UNL     1      46.566   7.703  27.450  0.00  0.00    -0.341 OA
ENDROOT
BRANCH   5   7
ATOM      7  O   UNL     1      47.958   8.849  28.922  0.00  0.00    -0.365 OA
ATOM      8  H   UNL     1      48.161   9.769  29.235  0.00  0.00    +0.213 HD
ENDBRANCH   5   7
BRANCH   1   9
ATOM      9  O   UNL     1      45.612  10.324  26.573  0.00  0.00    -0.384 OA
ATOM     10  H   UNL     1      45.702  11.071  25.923  0.00  0.00    +0.210 HD
ENDBRANCH   1   9
BRANCH   2  11
ATOM     11  O   UNL     1      49.226   9.961  26.587  0.00  0.00    -0.386 OA
ATOM     12  H   UNL     1      49.269  10.794  27.127  0.00  0.00    +0.210 HD
ENDBRANCH   2  11
BRANCH   3  13
ATOM     13  O   UNL     1      46.579   8.557  24.564  0.00  0.00    -0.386 OA
ATOM     14  H   UNL     1      46.706   9.318  23.940  0.00  0.00    +0.210 HD
ENDBRANCH   3  13
BRANCH   4  15
ATOM     15  C   UNL     1      48.839   6.832  27.009  0.00  0.00    +0.190 C 
BRANCH  15  16
ATOM     16  O   UNL     1      49.871   7.018  26.079  0.00  0.00    -0.392 OA
ATOM     17  H   UNL     1      49.734   6.334  25.374  0.00  0.00    +0.210 HD
ENDBRANCH  15  16
ENDBRANCH   4  15
TORSDOF 6
ENDMDL
