MODEL 20
REMARK VINA RESULT:    -4.818      1.975      3.627
REMARK INTER + INTRA:          -5.828
REMARK INTER:                  -5.589
REMARK INTRA:                  -0.239
REMARK UNBOUND:                -0.024
REMARK  Name = BGC
REMARK  6 active torsions:
REMARK  status: ('A' for Active; 'I' for Inactive)
REMARK    1  A    between atoms: C_1  and  O_8
REMARK    2  A    between atoms: C_2  and  O_9
REMARK    3  A    between atoms: C_3  and  O_10
REMARK    4  A    between atoms: C_4  and  C_5
REMARK    5  A    between atoms: C_5  and  O_12
REMARK    6  A    between atoms: C_6  and  O_7
REMARK                            x       y       z     vdW  Elec       q    Type
REMARK                         _______ _______ _______ _____ _____    ______ ____
ROOT
ATOM      1  C   UNL     1      48.644   8.319  26.771  0.00  0.00    +0.201 C 
ATOM      2  C   UNL     1      47.581   7.687  27.685  0.00  0.00    +0.179 C 
ATOM      3  C   UNL     1      46.584   6.854  26.859  0.00  0.00    +0.177 C 
ATOM      4  C   UNL     1      46.071   7.622  25.614  0.00  0.00    +0.178 C 
ATOM      5  C   UNL     1      47.983   9.057  25.589  0.00  0.00    +0.279 C 
ATOM      6  O   UNL     1      47.109   8.221  24.844  0.00  0.00    -0.341 OA
ENDROOT
BRANCH   5   7
ATOM      7  O   UNL     1      47.324  10.223  26.010  0.00  0.00    -0.365 OA
ATOM      8  H   UNL     1      47.109  10.105  26.972  0.00  0.00    +0.213 HD
ENDBRANCH   5   7
BRANCH   1   9
ATOM      9  O   UNL     1      49.502   7.327  26.267  0.00  0.00    -0.384 OA
ATOM     10  H   UNL     1      49.671   7.549  25.313  0.00  0.00    +0.210 HD
ENDBRANCH   1   9
BRANCH   2  11
ATOM     11  O   UNL     1      46.893   8.680  28.403  0.00  0.00    -0.386 OA
ATOM     12  H   UNL     1      47.512   9.007  29.108  0.00  0.00    +0.210 HD
ENDBRANCH   2  11
BRANCH   3  13
ATOM     13  O   UNL     1      47.200   5.665  26.432  0.00  0.00    -0.386 OA
ATOM     14  H   UNL     1      48.165   5.742  26.652  0.00  0.00    +0.210 HD
ENDBRANCH   3  13
BRANCH   4  15
ATOM     15  C   UNL     1      44.910   8.590  25.918  0.00  0.00    +0.190 C 
BRANCH  15  16
ATOM     16  O   UNL     1      44.623   9.357  24.781  0.00  0.00    -0.392 OA
ATOM     17  H   UNL     1      44.837   8.783  24.000  0.00  0.00    +0.210 HD
ENDBRANCH  15  16
ENDBRANCH   4  15
TORSDOF 6
ENDMDL
