MODEL 19
REMARK VINA RESULT:    -4.910      0.965      3.464
REMARK INTER + INTRA:          -5.939
REMARK INTER:                  -5.663
REMARK INTRA:                  -0.277
REMARK UNBOUND:                -0.024
REMARK  Name = BGC
REMARK  6 active torsions:
REMARK  status: ('A' for Active; 'I' for Inactive)
REMARK    1  A    between atoms: C_1  and  O_8
REMARK    2  A    between atoms: C_2  and  O_9
REMARK    3  A    between atoms: C_3  and  O_10
REMARK    4  A    between atoms: C_4  and  C_5
REMARK    5  A    between atoms: C_5  and  O_12
REMARK    6  A    between atoms: C_6  and  O_7
REMARK                            x       y       z     vdW  Elec       q    Type
REMARK                         _______ _______ _______ _____ _____    ______ ____
ROOT
ATOM      1  C   UNL     1      46.825   8.137  26.000  0.00  0.00    +0.201 C 
ATOM      2  C   UNL     1      46.226   9.495  26.404  0.00  0.00    +0.179 C 
ATOM      3  C   UNL     1      47.309  10.404  27.012  0.00  0.00    +0.177 C 
ATOM      4  C   UNL     1      48.158   9.667  28.079  0.00  0.00    +0.178 C 
ATOM      5  C   UNL     1      47.628   7.523  27.163  0.00  0.00    +0.279 C 
ATOM      6  O   UNL     1      48.638   8.396  27.650  0.00  0.00    -0.341 OA
ENDROOT
BRANCH   5   7
ATOM      7  O   UNL     1      46.788   7.098  28.205  0.00  0.00    -0.365 OA
ATOM      8  H   UNL     1      47.133   7.507  29.042  0.00  0.00    +0.213 HD
ENDBRANCH   5   7
BRANCH   1   9
ATOM      9  O   UNL     1      47.675   8.293  24.891  0.00  0.00    -0.384 OA
ATOM     10  H   UNL     1      47.843   9.267  24.791  0.00  0.00    +0.210 HD
ENDBRANCH   1   9
BRANCH   2  11
ATOM     11  O   UNL     1      45.179   9.318  27.323  0.00  0.00    -0.386 OA
ATOM     12  H   UNL     1      45.071   8.339  27.454  0.00  0.00    +0.210 HD
ENDBRANCH   2  11
BRANCH   3  13
ATOM     13  O   UNL     1      48.163  10.867  25.997  0.00  0.00    -0.386 OA
ATOM     14  H   UNL     1      47.588  11.256  25.288  0.00  0.00    +0.210 HD
ENDBRANCH   3  13
BRANCH   4  15
ATOM     15  C   UNL     1      47.502   9.625  29.473  0.00  0.00    +0.190 C 
BRANCH  15  16
ATOM     16  O   UNL     1      46.594  10.684  29.602  0.00  0.00    -0.392 OA
ATOM     17  H   UNL     1      45.744  10.282  29.918  0.00  0.00    +0.210 HD
ENDBRANCH  15  16
ENDBRANCH   4  15
TORSDOF 6
ENDMDL
