MODEL 14
REMARK VINA RESULT:    -5.068      1.595      3.789
REMARK INTER + INTRA:          -6.129
REMARK INTER:                  -5.850
REMARK INTRA:                  -0.279
REMARK UNBOUND:                -0.024
REMARK  Name = BGC
REMARK  6 active torsions:
REMARK  status: ('A' for Active; 'I' for Inactive)
REMARK    1  A    between atoms: C_1  and  O_8
REMARK    2  A    between atoms: C_2  and  O_9
REMARK    3  A    between atoms: C_3  and  O_10
REMARK    4  A    between atoms: C_4  and  C_5
REMARK    5  A    between atoms: C_5  and  O_12
REMARK    6  A    between atoms: C_6  and  O_7
REMARK                            x       y       z     vdW  Elec       q    Type
REMARK                         _______ _______ _______ _____ _____    ______ ____
ROOT
ATOM      1  C   UNL     1      46.475   9.149  25.310  0.00  0.00    +0.201 C 
ATOM      2  C   UNL     1      47.274   9.648  26.527  0.00  0.00    +0.179 C 
ATOM      3  C   UNL     1      47.058   8.717  27.733  0.00  0.00    +0.177 C 
ATOM      4  C   UNL     1      45.559   8.395  27.962  0.00  0.00    +0.178 C 
ATOM      5  C   UNL     1      45.005   8.885  25.689  0.00  0.00    +0.279 C 
ATOM      6  O   UNL     1      44.876   7.986  26.781  0.00  0.00    -0.341 OA
ENDROOT
BRANCH   5   7
ATOM      7  O   UNL     1      44.312  10.081  25.939  0.00  0.00    -0.365 OA
ATOM      8  H   UNL     1      44.696  10.472  26.767  0.00  0.00    +0.213 HD
ENDBRANCH   5   7
BRANCH   1   9
ATOM      9  O   UNL     1      47.039   7.961  24.814  0.00  0.00    -0.384 OA
ATOM     10  H   UNL     1      48.017   8.014  24.984  0.00  0.00    +0.210 HD
ENDBRANCH   1   9
BRANCH   2  11
ATOM     11  O   UNL     1      46.895  10.959  26.861  0.00  0.00    -0.386 OA
ATOM     12  H   UNL     1      47.516  11.570  26.383  0.00  0.00    +0.210 HD
ENDBRANCH   2  11
BRANCH   3  13
ATOM     13  O   UNL     1      47.752   7.511  27.531  0.00  0.00    -0.386 OA
ATOM     14  H   UNL     1      48.342   7.380  28.318  0.00  0.00    +0.210 HD
ENDBRANCH   3  13
BRANCH   4  15
ATOM     15  C   UNL     1      44.804   9.483  28.750  0.00  0.00    +0.190 C 
BRANCH  15  16
ATOM     16  O   UNL     1      45.705  10.204  29.545  0.00  0.00    -0.392 OA
ATOM     17  H   UNL     1      45.901  11.042  29.051  0.00  0.00    +0.210 HD
ENDBRANCH  15  16
ENDBRANCH   4  15
TORSDOF 6
ENDMDL
