MODEL 7
REMARK VINA RESULT:    -5.422      1.527      3.370
REMARK INTER + INTRA:          -6.556
REMARK INTER:                  -6.279
REMARK INTRA:                  -0.277
REMARK UNBOUND:                -0.024
REMARK  Name = BGC
REMARK  6 active torsions:
REMARK  status: ('A' for Active; 'I' for Inactive)
REMARK    1  A    between atoms: C_1  and  O_8
REMARK    2  A    between atoms: C_2  and  O_9
REMARK    3  A    between atoms: C_3  and  O_10
REMARK    4  A    between atoms: C_4  and  C_5
REMARK    5  A    between atoms: C_5  and  O_12
REMARK    6  A    between atoms: C_6  and  O_7
REMARK                            x       y       z     vdW  Elec       q    Type
REMARK                         _______ _______ _______ _____ _____    ______ ____
ROOT
ATOM      1  C   UNL     1      46.451   7.752  27.577  0.00  0.00    +0.201 C 
ATOM      2  C   UNL     1      45.919   8.980  26.819  0.00  0.00    +0.179 C 
ATOM      3  C   UNL     1      46.850   9.335  25.646  0.00  0.00    +0.177 C 
ATOM      4  C   UNL     1      48.340   9.365  26.071  0.00  0.00    +0.178 C 
ATOM      5  C   UNL     1      47.937   7.933  27.942  0.00  0.00    +0.279 C 
ATOM      6  O   UNL     1      48.747   8.218  26.810  0.00  0.00    -0.341 OA
ENDROOT
BRANCH   5   7
ATOM      7  O   UNL     1      48.111   8.907  28.940  0.00  0.00    -0.365 OA
ATOM      8  H   UNL     1      47.721   8.540  29.776  0.00  0.00    +0.213 HD
ENDBRANCH   5   7
BRANCH   1   9
ATOM      9  O   UNL     1      46.313   6.597  26.788  0.00  0.00    -0.384 OA
ATOM     10  H   UNL     1      46.972   5.935  27.127  0.00  0.00    +0.210 HD
ENDBRANCH   1   9
BRANCH   2  11
ATOM     11  O   UNL     1      45.799  10.080  27.684  0.00  0.00    -0.386 OA
ATOM     12  H   UNL     1      46.717  10.431  27.835  0.00  0.00    +0.210 HD
ENDBRANCH   2  11
BRANCH   3  13
ATOM     13  O   UNL     1      46.695   8.393  24.615  0.00  0.00    -0.386 OA
ATOM     14  H   UNL     1      46.988   8.831  23.774  0.00  0.00    +0.210 HD
ENDBRANCH   3  13
BRANCH   4  15
ATOM     15  C   UNL     1      48.771  10.691  26.729  0.00  0.00    +0.190 C 
BRANCH  15  16
ATOM     16  O   UNL     1      47.947  11.732  26.281  0.00  0.00    -0.392 OA
ATOM     17  H   UNL     1      47.532  12.124  27.093  0.00  0.00    +0.210 HD
ENDBRANCH  15  16
ENDBRANCH   4  15
TORSDOF 6
ENDMDL
