MODEL 2
REMARK VINA RESULT:    -5.821      1.069      3.568
REMARK INTER + INTRA:          -7.037
REMARK INTER:                  -6.768
REMARK INTRA:                  -0.268
REMARK UNBOUND:                -0.024
REMARK  Name = BGC
REMARK  6 active torsions:
REMARK  status: ('A' for Active; 'I' for Inactive)
REMARK    1  A    between atoms: C_1  and  O_8
REMARK    2  A    between atoms: C_2  and  O_9
REMARK    3  A    between atoms: C_3  and  O_10
REMARK    4  A    between atoms: C_4  and  C_5
REMARK    5  A    between atoms: C_5  and  O_12
REMARK    6  A    between atoms: C_6  and  O_7
REMARK                            x       y       z     vdW  Elec       q    Type
REMARK                         _______ _______ _______ _____ _____    ______ ____
ROOT
ATOM      1  C   UNL     1      47.622   9.551  25.754  0.00  0.00    +0.201 C 
ATOM      2  C   UNL     1      48.666  10.488  26.388  0.00  0.00    +0.179 C 
ATOM      3  C   UNL     1      49.134   9.934  27.745  0.00  0.00    +0.177 C 
ATOM      4  C   UNL     1      47.946   9.500  28.641  0.00  0.00    +0.178 C 
ATOM      5  C   UNL     1      46.501   9.220  26.758  0.00  0.00    +0.279 C 
ATOM      6  O   UNL     1      46.997   8.675  27.971  0.00  0.00    -0.341 OA
ENDROOT
BRANCH   5   7
ATOM      7  O   UNL     1      45.682  10.335  27.006  0.00  0.00    -0.365 OA
ATOM      8  H   UNL     1      45.046  10.404  26.246  0.00  0.00    +0.213 HD
ENDBRANCH   5   7
BRANCH   1   9
ATOM      9  O   UNL     1      48.233   8.355  25.341  0.00  0.00    -0.384 OA
ATOM     10  H   UNL     1      48.582   8.511  24.423  0.00  0.00    +0.210 HD
ENDBRANCH   1   9
BRANCH   2  11
ATOM     11  O   UNL     1      48.134  11.777  26.555  0.00  0.00    -0.386 OA
ATOM     12  H   UNL     1      48.368  12.069  27.476  0.00  0.00    +0.210 HD
ENDBRANCH   2  11
BRANCH   3  13
ATOM     13  O   UNL     1      49.973   8.825  27.541  0.00  0.00    -0.386 OA
ATOM     14  H   UNL     1      50.894   9.175  27.427  0.00  0.00    +0.210 HD
ENDBRANCH   3  13
BRANCH   4  15
ATOM     15  C   UNL     1      47.294  10.664  29.414  0.00  0.00    +0.190 C 
BRANCH  15  16
ATOM     16  O   UNL     1      48.247  11.661  29.662  0.00  0.00    -0.392 OA
ATOM     17  H   UNL     1      48.022  12.415  29.057  0.00  0.00    +0.210 HD
ENDBRANCH  15  16
ENDBRANCH   4  15
TORSDOF 6
ENDMDL
