MODEL 10
REMARK VINA RESULT:    -5.300      1.465      2.575
REMARK INTER + INTRA:          -6.408
REMARK INTER:                  -6.137
REMARK INTRA:                  -0.272
REMARK UNBOUND:                -0.024
REMARK  Name = BGC
REMARK  6 active torsions:
REMARK  status: ('A' for Active; 'I' for Inactive)
REMARK    1  A    between atoms: C_1  and  O_8
REMARK    2  A    between atoms: C_2  and  O_9
REMARK    3  A    between atoms: C_3  and  O_10
REMARK    4  A    between atoms: C_4  and  C_5
REMARK    5  A    between atoms: C_5  and  O_12
REMARK    6  A    between atoms: C_6  and  O_7
REMARK                            x       y       z     vdW  Elec       q    Type
REMARK                         _______ _______ _______ _____ _____    ______ ____
ROOT
ATOM      1  C   UNL     1      46.489   9.842  27.838  0.00  0.00    +0.201 C 
ATOM      2  C   UNL     1      47.774  10.582  28.251  0.00  0.00    +0.179 C 
ATOM      3  C   UNL     1      48.782  10.603  27.089  0.00  0.00    +0.177 C 
ATOM      4  C   UNL     1      48.955   9.206  26.440  0.00  0.00    +0.178 C 
ATOM      5  C   UNL     1      46.820   8.469  27.223  0.00  0.00    +0.279 C 
ATOM      6  O   UNL     1      47.723   8.563  26.130  0.00  0.00    -0.341 OA
ENDROOT
BRANCH   5   7
ATOM      7  O   UNL     1      47.297   7.569  28.190  0.00  0.00    -0.365 OA
ATOM      8  H   UNL     1      47.202   8.014  29.073  0.00  0.00    +0.213 HD
ENDBRANCH   5   7
BRANCH   1   9
ATOM      9  O   UNL     1      45.774  10.603  26.897  0.00  0.00    -0.384 OA
ATOM     10  H   UNL     1      45.383   9.962  26.245  0.00  0.00    +0.210 HD
ENDBRANCH   1   9
BRANCH   2  11
ATOM     11  O   UNL     1      48.354   9.972  29.376  0.00  0.00    -0.386 OA
ATOM     12  H   UNL     1      48.997   9.295  29.038  0.00  0.00    +0.210 HD
ENDBRANCH   2  11
BRANCH   3  13
ATOM     13  O   UNL     1      48.351  11.507  26.103  0.00  0.00    -0.386 OA
ATOM     14  H   UNL     1      48.338  12.407  26.520  0.00  0.00    +0.210 HD
ENDBRANCH   3  13
BRANCH   4  15
ATOM     15  C   UNL     1      49.941   8.290  27.193  0.00  0.00    +0.190 C 
BRANCH  15  16
ATOM     16  O   UNL     1      50.897   9.068  27.859  0.00  0.00    -0.392 OA
ATOM     17  H   UNL     1      51.080   8.605  28.717  0.00  0.00    +0.210 HD
ENDBRANCH  15  16
ENDBRANCH   4  15
TORSDOF 6
ENDMDL
