MODEL 6
REMARK VINA RESULT:    -5.443      1.588      3.090
REMARK INTER + INTRA:          -6.581
REMARK INTER:                  -6.304
REMARK INTRA:                  -0.277
REMARK UNBOUND:                -0.024
REMARK  Name = BGC
REMARK  6 active torsions:
REMARK  status: ('A' for Active; 'I' for Inactive)
REMARK    1  A    between atoms: C_1  and  O_8
REMARK    2  A    between atoms: C_2  and  O_9
REMARK    3  A    between atoms: C_3  and  O_10
REMARK    4  A    between atoms: C_4  and  C_5
REMARK    5  A    between atoms: C_5  and  O_12
REMARK    6  A    between atoms: C_6  and  O_7
REMARK                            x       y       z     vdW  Elec       q    Type
REMARK                         _______ _______ _______ _____ _____    ______ ____
ROOT
ATOM      1  C   UNL     1      49.284  10.381  26.952  0.00  0.00    +0.201 C 
ATOM      2  C   UNL     1      47.898  10.924  27.344  0.00  0.00    +0.179 C 
ATOM      3  C   UNL     1      47.503  10.431  28.747  0.00  0.00    +0.177 C 
ATOM      4  C   UNL     1      47.734   8.908  28.919  0.00  0.00    +0.178 C 
ATOM      5  C   UNL     1      49.356   8.856  27.165  0.00  0.00    +0.279 C 
ATOM      6  O   UNL     1      49.021   8.474  28.491  0.00  0.00    -0.341 OA
ENDROOT
BRANCH   5   7
ATOM      7  O   UNL     1      48.570   8.164  26.229  0.00  0.00    -0.365 OA
ATOM      8  H   UNL     1      48.337   7.289  26.635  0.00  0.00    +0.213 HD
ENDBRANCH   5   7
BRANCH   1   9
ATOM      9  O   UNL     1      50.282  10.998  27.725  0.00  0.00    -0.384 OA
ATOM     10  H   UNL     1      49.880  11.194  28.613  0.00  0.00    +0.210 HD
ENDBRANCH   1   9
BRANCH   2  11
ATOM     11  O   UNL     1      46.930  10.525  26.407  0.00  0.00    -0.386 OA
ATOM     12  H   UNL     1      46.853  11.258  25.741  0.00  0.00    +0.210 HD
ENDBRANCH   2  11
BRANCH   3  13
ATOM     13  O   UNL     1      48.256  11.113  29.718  0.00  0.00    -0.386 OA
ATOM     14  H   UNL     1      47.846  10.911  30.599  0.00  0.00    +0.210 HD
ENDBRANCH   3  13
BRANCH   4  15
ATOM     15  C   UNL     1      46.587   8.040  28.363  0.00  0.00    +0.190 C 
BRANCH  15  16
ATOM     16  O   UNL     1      45.407   8.794  28.307  0.00  0.00    -0.392 OA
ATOM     17  H   UNL     1      44.769   8.353  28.927  0.00  0.00    +0.210 HD
ENDBRANCH  15  16
ENDBRANCH   4  15
TORSDOF 6
ENDMDL
