MODEL 9
REMARK VINA RESULT:    -5.310      1.201      2.995
REMARK INTER + INTRA:          -6.421
REMARK INTER:                  -6.220
REMARK INTRA:                  -0.201
REMARK UNBOUND:                -0.024
REMARK  Name = BGC
REMARK  6 active torsions:
REMARK  status: ('A' for Active; 'I' for Inactive)
REMARK    1  A    between atoms: C_1  and  O_8
REMARK    2  A    between atoms: C_2  and  O_9
REMARK    3  A    between atoms: C_3  and  O_10
REMARK    4  A    between atoms: C_4  and  C_5
REMARK    5  A    between atoms: C_5  and  O_12
REMARK    6  A    between atoms: C_6  and  O_7
REMARK                            x       y       z     vdW  Elec       q    Type
REMARK                         _______ _______ _______ _____ _____    ______ ____
ROOT
ATOM      1  C   UNL     1      48.737  10.041  28.088  0.00  0.00    +0.201 C 
ATOM      2  C   UNL     1      47.609   9.766  29.097  0.00  0.00    +0.179 C 
ATOM      3  C   UNL     1      46.702   8.627  28.596  0.00  0.00    +0.177 C 
ATOM      4  C   UNL     1      46.287   8.820  27.115  0.00  0.00    +0.178 C 
ATOM      5  C   UNL     1      48.170  10.222  26.666  0.00  0.00    +0.279 C 
ATOM      6  O   UNL     1      47.378   9.119  26.250  0.00  0.00    -0.341 OA
ENDROOT
BRANCH   5   7
ATOM      7  O   UNL     1      47.458  11.426  26.542  0.00  0.00    -0.365 OA
ATOM      8  H   UNL     1      46.894  11.516  27.355  0.00  0.00    +0.213 HD
ENDBRANCH   5   7
BRANCH   1   9
ATOM      9  O   UNL     1      49.653   8.975  28.081  0.00  0.00    -0.384 OA
ATOM     10  H   UNL     1      49.211   8.218  27.613  0.00  0.00    +0.210 HD
ENDBRANCH   1   9
BRANCH   2  11
ATOM     11  O   UNL     1      46.845  10.925  29.312  0.00  0.00    -0.386 OA
ATOM     12  H   UNL     1      46.919  11.477  28.488  0.00  0.00    +0.210 HD
ENDBRANCH   2  11
BRANCH   3  13
ATOM     13  O   UNL     1      47.373   7.398  28.719  0.00  0.00    -0.386 OA
ATOM     14  H   UNL     1      46.911   6.886  29.433  0.00  0.00    +0.210 HD
ENDBRANCH   3  13
BRANCH   4  15
ATOM     15  C   UNL     1      45.088   9.770  26.925  0.00  0.00    +0.190 C 
BRANCH  15  16
ATOM     16  O   UNL     1      44.792   9.892  25.561  0.00  0.00    -0.392 OA
ATOM     17  H   UNL     1      44.198   9.129  25.339  0.00  0.00    +0.210 HD
ENDBRANCH  15  16
ENDBRANCH   4  15
TORSDOF 6
ENDMDL
