MODEL 18
REMARK VINA RESULT:    -4.960      1.255      2.698
REMARK INTER + INTRA:          -5.999
REMARK INTER:                  -5.760
REMARK INTRA:                  -0.239
REMARK UNBOUND:                -0.024
REMARK  Name = BGC
REMARK  6 active torsions:
REMARK  status: ('A' for Active; 'I' for Inactive)
REMARK    1  A    between atoms: C_1  and  O_8
REMARK    2  A    between atoms: C_2  and  O_9
REMARK    3  A    between atoms: C_3  and  O_10
REMARK    4  A    between atoms: C_4  and  C_5
REMARK    5  A    between atoms: C_5  and  O_12
REMARK    6  A    between atoms: C_6  and  O_7
REMARK                            x       y       z     vdW  Elec       q    Type
REMARK                         _______ _______ _______ _____ _____    ______ ____
ROOT
ATOM      1  C   UNL     1      49.150  10.475  27.536  0.00  0.00    +0.201 C 
ATOM      2  C   UNL     1      49.134   8.989  27.140  0.00  0.00    +0.179 C 
ATOM      3  C   UNL     1      47.743   8.584  26.620  0.00  0.00    +0.177 C 
ATOM      4  C   UNL     1      46.605   9.074  27.552  0.00  0.00    +0.178 C 
ATOM      5  C   UNL     1      47.971  10.808  28.471  0.00  0.00    +0.279 C 
ATOM      6  O   UNL     1      46.715  10.447  27.913  0.00  0.00    -0.341 OA
ENDROOT
BRANCH   5   7
ATOM      7  O   UNL     1      48.139  10.234  29.741  0.00  0.00    -0.365 OA
ATOM      8  H   UNL     1      47.287   9.776  29.969  0.00  0.00    +0.213 HD
ENDBRANCH   5   7
BRANCH   1   9
ATOM      9  O   UNL     1      49.065  11.283  26.389  0.00  0.00    -0.384 OA
ATOM     10  H   UNL     1      48.279  11.879  26.513  0.00  0.00    +0.210 HD
ENDBRANCH   1   9
BRANCH   2  11
ATOM     11  O   UNL     1      49.488   8.183  28.235  0.00  0.00    -0.386 OA
ATOM     12  H   UNL     1      48.805   7.464  28.297  0.00  0.00    +0.210 HD
ENDBRANCH   2  11
BRANCH   3  13
ATOM     13  O   UNL     1      47.540   9.125  25.339  0.00  0.00    -0.386 OA
ATOM     14  H   UNL     1      46.579   9.362  25.273  0.00  0.00    +0.210 HD
ENDBRANCH   3  13
BRANCH   4  15
ATOM     15  C   UNL     1      46.351   8.150  28.759  0.00  0.00    +0.190 C 
BRANCH  15  16
ATOM     16  O   UNL     1      45.463   8.768  29.650  0.00  0.00    -0.392 OA
ATOM     17  H   UNL     1      44.599   8.288  29.555  0.00  0.00    +0.210 HD
ENDBRANCH  15  16
ENDBRANCH   4  15
TORSDOF 6
ENDMDL
