MODEL 3
REMARK VINA RESULT:    -5.651      1.290      3.132
REMARK INTER + INTRA:          -6.832
REMARK INTER:                  -6.592
REMARK INTRA:                  -0.240
REMARK UNBOUND:                -0.024
REMARK  Name = BGC
REMARK  6 active torsions:
REMARK  status: ('A' for Active; 'I' for Inactive)
REMARK    1  A    between atoms: C_1  and  O_8
REMARK    2  A    between atoms: C_2  and  O_9
REMARK    3  A    between atoms: C_3  and  O_10
REMARK    4  A    between atoms: C_4  and  C_5
REMARK    5  A    between atoms: C_5  and  O_12
REMARK    6  A    between atoms: C_6  and  O_7
REMARK                            x       y       z     vdW  Elec       q    Type
REMARK                         _______ _______ _______ _____ _____    ______ ____
ROOT
ATOM      1  C   UNL     1      48.589  10.636  26.371  0.00  0.00    +0.201 C 
ATOM      2  C   UNL     1      47.613   9.569  25.845  0.00  0.00    +0.179 C 
ATOM      3  C   UNL     1      46.455   9.361  26.838  0.00  0.00    +0.177 C 
ATOM      4  C   UNL     1      46.957   9.196  28.295  0.00  0.00    +0.178 C 
ATOM      5  C   UNL     1      49.007  10.330  27.822  0.00  0.00    +0.279 C 
ATOM      6  O   UNL     1      47.894  10.192  28.693  0.00  0.00    -0.341 OA
ENDROOT
BRANCH   5   7
ATOM      7  O   UNL     1      49.843   9.204  27.895  0.00  0.00    -0.365 OA
ATOM      8  H   UNL     1      49.258   8.416  28.045  0.00  0.00    +0.213 HD
ENDBRANCH   5   7
BRANCH   1   9
ATOM      9  O   UNL     1      47.989  11.906  26.326  0.00  0.00    -0.384 OA
ATOM     10  H   UNL     1      48.302  12.401  27.129  0.00  0.00    +0.210 HD
ENDBRANCH   1   9
BRANCH   2  11
ATOM     11  O   UNL     1      48.281   8.352  25.630  0.00  0.00    -0.386 OA
ATOM     12  H   UNL     1      47.853   7.923  24.842  0.00  0.00    +0.210 HD
ENDBRANCH   2  11
BRANCH   3  13
ATOM     13  O   UNL     1      45.582  10.462  26.784  0.00  0.00    -0.386 OA
ATOM     14  H   UNL     1      45.064  10.463  27.631  0.00  0.00    +0.210 HD
ENDBRANCH   3  13
BRANCH   4  15
ATOM     15  C   UNL     1      47.418   7.764  28.634  0.00  0.00    +0.190 C 
BRANCH  15  16
ATOM     16  O   UNL     1      48.016   7.747  29.901  0.00  0.00    -0.392 OA
ATOM     17  H   UNL     1      48.623   8.532  29.930  0.00  0.00    +0.210 HD
ENDBRANCH  15  16
ENDBRANCH   4  15
TORSDOF 6
ENDMDL
