MODEL 1
REMARK VINA RESULT:    -7.266      0.000      0.000
REMARK INTER + INTRA:         -12.199
REMARK INTER:                 -10.877
REMARK INTRA:                  -1.322
REMARK UNBOUND:                -1.322
REMARK  Name = UDP
REMARK  11 active torsions:
REMARK  status: ('A' for Active; 'I' for Inactive)
REMARK    1  A    between atoms: N_1  and  C_9
REMARK    2  A    between atoms: C_10  and  O_11
REMARK    3  A    between atoms: C_12  and  O_15
REMARK    4  A    between atoms: C_13  and  C_16
REMARK    5  A    between atoms: C_16  and  O_17
REMARK    6  A    between atoms: O_17  and  P_18
REMARK    7  A    between atoms: P_18  and  O_20
REMARK    8  A    between atoms: P_18  and  O_21
REMARK    9  A    between atoms: O_21  and  P_22
REMARK   10  A    between atoms: P_22  and  O_24
REMARK   11  A    between atoms: P_22  and  O_25
REMARK                            x       y       z     vdW  Elec       q    Type
REMARK                         _______ _______ _______ _____ _____    ______ ____
ROOT
ATOM      1  C   UNL     1      58.153  18.976  -3.668  0.00  0.00    +0.255 C 
ATOM      2  C   UNL     1      58.262  18.684  -2.161  0.00  0.00    +0.195 C 
ATOM      3  C   UNL     1      58.110  20.050  -1.517  0.00  0.00    +0.178 C 
ATOM      4  C   UNL     1      57.482  20.877  -2.632  0.00  0.00    +0.178 C 
ATOM      5  O   UNL     1      57.937  20.359  -3.860  0.00  0.00    -0.346 OA
ENDROOT
BRANCH   1   6
ATOM      6  N   UNL     1      59.371  18.542  -4.382  0.00  0.00    -0.271 N 
ATOM      7  C   UNL     1      59.370  17.451  -5.221  0.00  0.00    +0.331 A 
ATOM      8  N   UNL     1      60.507  17.089  -5.880  0.00  0.00    -0.275 N 
ATOM      9  C   UNL     1      61.657  17.798  -5.738  0.00  0.00    +0.254 A 
ATOM     10  C   UNL     1      61.682  18.916  -4.911  0.00  0.00    +0.088 A 
ATOM     11  C   UNL     1      60.516  19.277  -4.240  0.00  0.00    +0.098 A 
ATOM     12  O   UNL     1      58.320  16.775  -5.396  0.00  0.00    -0.246 OA
ATOM     13  O   UNL     1      62.697  17.447  -6.356  0.00  0.00    -0.268 OA
ATOM     14  H   UNL     1      60.494  16.254  -6.509  0.00  0.00    +0.173 HD
ENDBRANCH   1   6
BRANCH   2  15
ATOM     15  O   UNL     1      57.270  17.774  -1.740  0.00  0.00    -0.385 OA
ATOM     16  H   UNL     1      56.396  18.083  -2.097  0.00  0.00    +0.210 HD
ENDBRANCH   2  15
BRANCH   3  17
ATOM     17  O   UNL     1      57.282  20.029  -0.382  0.00  0.00    -0.386 OA
ATOM     18  H   UNL     1      57.378  19.124   0.016  0.00  0.00    +0.210 HD
ENDBRANCH   3  17
BRANCH   4  19
ATOM     19  C   UNL     1      57.847  22.359  -2.521  0.00  0.00    +0.206 C 
BRANCH  19  20
ATOM     20  O   UNL     1      58.297  22.625  -1.213  0.00  0.00    -0.284 OA
BRANCH  20  21
ATOM     21  P   UNL     1      57.814  24.205  -0.795  0.00  0.00    +0.483 P 
ATOM     22  O   UNL     1      58.980  24.895  -0.123  0.00  0.00    -0.227 OA
BRANCH  21  23
ATOM     23  O   UNL     1      57.397  25.055  -2.201  0.00  0.00    -0.302 OA
ATOM     24  H   UNL     1      58.262  25.260  -2.639  0.00  0.00    +0.222 HD
ENDBRANCH  21  23
BRANCH  21  25
ATOM     25  O   UNL     1      56.503  24.117   0.289  0.00  0.00    -0.186 OA
BRANCH  25  26
ATOM     26  P   UNL     1      56.104  25.705   0.750  0.00  0.00    +0.481 P 
ATOM     27  O   UNL     1      56.358  25.856   2.233  0.00  0.00    -0.227 OA
BRANCH  26  28
ATOM     28  O   UNL     1      57.048  26.836  -0.085  0.00  0.00    -0.302 OA
ATOM     29  H   UNL     1      56.431  27.244  -0.746  0.00  0.00    +0.222 HD
ENDBRANCH  26  28
BRANCH  26  30
ATOM     30  O   UNL     1      54.465  26.000   0.448  0.00  0.00    -0.302 OA
ATOM     31  H   UNL     1      54.077  26.208   1.335  0.00  0.00    +0.222 HD
ENDBRANCH  26  30
ENDBRANCH  25  26
ENDBRANCH  21  25
ENDBRANCH  20  21
ENDBRANCH  19  20
ENDBRANCH   4  19
TORSDOF 11
ENDMDL
MODEL 2
REMARK VINA RESULT:    -7.200      5.940      7.723
REMARK INTER + INTRA:         -12.100
REMARK INTER:                 -10.288
REMARK INTRA:                  -1.812
REMARK UNBOUND:                -1.322
REMARK  Name = UDP
REMARK  11 active torsions:
REMARK  status: ('A' for Active; 'I' for Inactive)
REMARK    1  A    between atoms: N_1  and  C_9
REMARK    2  A    between atoms: C_10  and  O_11
REMARK    3  A    between atoms: C_12  and  O_15
REMARK    4  A    between atoms: C_13  and  C_16
REMARK    5  A    between atoms: C_16  and  O_17
REMARK    6  A    between atoms: O_17  and  P_18
REMARK    7  A    between atoms: P_18  and  O_20
REMARK    8  A    between atoms: P_18  and  O_21
REMARK    9  A    between atoms: O_21  and  P_22
REMARK   10  A    between atoms: P_22  and  O_24
REMARK   11  A    between atoms: P_22  and  O_25
REMARK                            x       y       z     vdW  Elec       q    Type
REMARK                         _______ _______ _______ _____ _____    ______ ____
ROOT
ATOM      1  C   UNL     1      56.691  24.766   0.753  0.00  0.00    +0.255 C 
ATOM      2  C   UNL     1      57.964  24.453  -0.054  0.00  0.00    +0.195 C 
ATOM      3  C   UNL     1      57.504  24.531  -1.498  0.00  0.00    +0.178 C 
ATOM      4  C   UNL     1      56.200  25.312  -1.391  0.00  0.00    +0.178 C 
ATOM      5  O   UNL     1      55.625  25.020  -0.139  0.00  0.00    -0.346 OA
ENDROOT
BRANCH   1   6
ATOM      6  N   UNL     1      56.348  23.651   1.659  0.00  0.00    -0.271 N 
ATOM      7  C   UNL     1      56.019  23.862   2.978  0.00  0.00    +0.331 A 
ATOM      8  N   UNL     1      55.689  22.813   3.781  0.00  0.00    -0.275 N 
ATOM      9  C   UNL     1      55.663  21.542   3.302  0.00  0.00    +0.254 A 
ATOM     10  C   UNL     1      55.973  21.300   1.968  0.00  0.00    +0.088 A 
ATOM     11  C   UNL     1      56.311  22.379   1.155  0.00  0.00    +0.098 A 
ATOM     12  O   UNL     1      56.012  25.028   3.460  0.00  0.00    -0.246 OA
ATOM     13  O   UNL     1      55.355  20.585   4.061  0.00  0.00    -0.268 OA
ATOM     14  H   UNL     1      55.446  22.987   4.784  0.00  0.00    +0.173 HD
ENDBRANCH   1   6
BRANCH   2  15
ATOM     15  O   UNL     1      58.995  25.369   0.237  0.00  0.00    -0.385 OA
ATOM     16  H   UNL     1      58.715  26.264  -0.091  0.00  0.00    +0.210 HD
ENDBRANCH   2  15
BRANCH   3  17
ATOM     17  O   UNL     1      58.421  25.198  -2.327  0.00  0.00    -0.386 OA
ATOM     18  H   UNL     1      57.894  25.573  -3.080  0.00  0.00    +0.210 HD
ENDBRANCH   3  17
BRANCH   4  19
ATOM     19  C   UNL     1      55.222  24.950  -2.513  0.00  0.00    +0.206 C 
BRANCH  19  20
ATOM     20  O   UNL     1      53.997  25.606  -2.283  0.00  0.00    -0.284 OA
BRANCH  20  21
ATOM     21  P   UNL     1      52.775  24.425  -2.166  0.00  0.00    +0.483 P 
ATOM     22  O   UNL     1      52.610  23.775  -3.522  0.00  0.00    -0.227 OA
BRANCH  21  23
ATOM     23  O   UNL     1      53.239  23.248  -1.037  0.00  0.00    -0.302 OA
ATOM     24  H   UNL     1      53.188  22.390  -1.530  0.00  0.00    +0.222 HD
ENDBRANCH  21  23
BRANCH  21  25
ATOM     25  O   UNL     1      51.315  25.178  -1.714  0.00  0.00    -0.186 OA
BRANCH  25  26
ATOM     26  P   UNL     1      51.615  26.089  -0.309  0.00  0.00    +0.481 P 
ATOM     27  O   UNL     1      51.860  27.526  -0.709  0.00  0.00    -0.227 OA
BRANCH  26  28
ATOM     28  O   UNL     1      50.291  26.032   0.746  0.00  0.00    -0.302 OA
ATOM     29  H   UNL     1      49.625  26.651   0.351  0.00  0.00    +0.222 HD
ENDBRANCH  26  28
BRANCH  26  30
ATOM     30  O   UNL     1      52.994  25.501   0.478  0.00  0.00    -0.302 OA
ATOM     31  H   UNL     1      52.644  24.942   1.216  0.00  0.00    +0.222 HD
ENDBRANCH  26  30
ENDBRANCH  25  26
ENDBRANCH  21  25
ENDBRANCH  20  21
ENDBRANCH  19  20
ENDBRANCH   4  19
TORSDOF 11
ENDMDL
MODEL 3
REMARK VINA RESULT:    -7.085      2.848      4.628
REMARK INTER + INTRA:         -11.928
REMARK INTER:                 -10.057
REMARK INTRA:                  -1.872
REMARK UNBOUND:                -1.322
REMARK  Name = UDP
REMARK  11 active torsions:
REMARK  status: ('A' for Active; 'I' for Inactive)
REMARK    1  A    between atoms: N_1  and  C_9
REMARK    2  A    between atoms: C_10  and  O_11
REMARK    3  A    between atoms: C_12  and  O_15
REMARK    4  A    between atoms: C_13  and  C_16
REMARK    5  A    between atoms: C_16  and  O_17
REMARK    6  A    between atoms: O_17  and  P_18
REMARK    7  A    between atoms: P_18  and  O_20
REMARK    8  A    between atoms: P_18  and  O_21
REMARK    9  A    between atoms: O_21  and  P_22
REMARK   10  A    between atoms: P_22  and  O_24
REMARK   11  A    between atoms: P_22  and  O_25
REMARK                            x       y       z     vdW  Elec       q    Type
REMARK                         _______ _______ _______ _____ _____    ______ ____
ROOT
ATOM      1  C   UNL     1      57.627  17.902  -7.183  0.00  0.00    +0.255 C 
ATOM      2  C   UNL     1      57.036  16.555  -6.728  0.00  0.00    +0.195 C 
ATOM      3  C   UNL     1      56.035  16.944  -5.656  0.00  0.00    +0.178 C 
ATOM      4  C   UNL     1      55.815  18.427  -5.927  0.00  0.00    +0.178 C 
ATOM      5  O   UNL     1      57.008  18.949  -6.463  0.00  0.00    -0.346 OA
ENDROOT
BRANCH   1   6
ATOM      6  N   UNL     1      59.090  17.935  -6.983  0.00  0.00    -0.271 N 
ATOM      7  C   UNL     1      59.937  18.500  -7.909  0.00  0.00    +0.331 A 
ATOM      8  N   UNL     1      61.280  18.531  -7.684  0.00  0.00    -0.275 N 
ATOM      9  C   UNL     1      61.813  18.022  -6.543  0.00  0.00    +0.254 A 
ATOM     10  C   UNL     1      60.980  17.461  -5.581  0.00  0.00    +0.088 A 
ATOM     11  C   UNL     1      59.608  17.433  -5.821  0.00  0.00    +0.098 A 
ATOM     12  O   UNL     1      59.482  19.001  -8.974  0.00  0.00    -0.246 OA
ATOM     13  O   UNL     1      63.058  18.061  -6.354  0.00  0.00    -0.268 OA
ATOM     14  H   UNL     1      61.912  18.959  -8.399  0.00  0.00    +0.173 HD
ENDBRANCH   1   6
BRANCH   2  15
ATOM     15  O   UNL     1      56.439  15.867  -7.804  0.00  0.00    -0.385 OA
ATOM     16  H   UNL     1      55.761  15.242  -7.432  0.00  0.00    +0.210 HD
ENDBRANCH   2  15
BRANCH   3  17
ATOM     17  O   UNL     1      54.828  16.232  -5.754  0.00  0.00    -0.386 OA
ATOM     18  H   UNL     1      54.317  16.651  -6.495  0.00  0.00    +0.210 HD
ENDBRANCH   3  17
BRANCH   4  19
ATOM     19  C   UNL     1      55.434  19.191  -4.656  0.00  0.00    +0.206 C 
BRANCH  19  20
ATOM     20  O   UNL     1      55.901  18.479  -3.535  0.00  0.00    -0.284 OA
BRANCH  20  21
ATOM     21  P   UNL     1      57.134  19.395  -2.798  0.00  0.00    +0.483 P 
ATOM     22  O   UNL     1      57.969  18.467  -1.943  0.00  0.00    -0.227 OA
BRANCH  21  23
ATOM     23  O   UNL     1      58.116  20.082  -3.997  0.00  0.00    -0.302 OA
ATOM     24  H   UNL     1      58.927  20.387  -3.517  0.00  0.00    +0.222 HD
ENDBRANCH  21  23
BRANCH  21  25
ATOM     25  O   UNL     1      56.426  20.592  -1.814  0.00  0.00    -0.186 OA
BRANCH  25  26
ATOM     26  P   UNL     1      57.597  21.794  -1.534  0.00  0.00    +0.481 P 
ATOM     27  O   UNL     1      57.782  22.592  -2.804  0.00  0.00    -0.227 OA
BRANCH  26  28
ATOM     28  O   UNL     1      57.111  22.840  -0.294  0.00  0.00    -0.302 OA
ATOM     29  H   UNL     1      56.176  22.576  -0.092  0.00  0.00    +0.222 HD
ENDBRANCH  26  28
BRANCH  26  30
ATOM     30  O   UNL     1      59.075  21.076  -1.124  0.00  0.00    -0.302 OA
ATOM     31  H   UNL     1      58.925  20.684  -0.227  0.00  0.00    +0.222 HD
ENDBRANCH  26  30
ENDBRANCH  25  26
ENDBRANCH  21  25
ENDBRANCH  20  21
ENDBRANCH  19  20
ENDBRANCH   4  19
TORSDOF 11
ENDMDL
MODEL 4
REMARK VINA RESULT:    -7.018      6.080      8.363
REMARK INTER + INTRA:         -11.828
REMARK INTER:                 -10.318
REMARK INTRA:                  -1.511
REMARK UNBOUND:                -1.322
REMARK  Name = UDP
REMARK  11 active torsions:
REMARK  status: ('A' for Active; 'I' for Inactive)
REMARK    1  A    between atoms: N_1  and  C_9
REMARK    2  A    between atoms: C_10  and  O_11
REMARK    3  A    between atoms: C_12  and  O_15
REMARK    4  A    between atoms: C_13  and  C_16
REMARK    5  A    between atoms: C_16  and  O_17
REMARK    6  A    between atoms: O_17  and  P_18
REMARK    7  A    between atoms: P_18  and  O_20
REMARK    8  A    between atoms: P_18  and  O_21
REMARK    9  A    between atoms: O_21  and  P_22
REMARK   10  A    between atoms: P_22  and  O_24
REMARK   11  A    between atoms: P_22  and  O_25
REMARK                            x       y       z     vdW  Elec       q    Type
REMARK                         _______ _______ _______ _____ _____    ______ ____
ROOT
ATOM      1  C   UNL     1      58.161  18.538  -7.658  0.00  0.00    +0.255 C 
ATOM      2  C   UNL     1      57.684  17.155  -7.181  0.00  0.00    +0.195 C 
ATOM      3  C   UNL     1      56.219  17.374  -6.848  0.00  0.00    +0.178 C 
ATOM      4  C   UNL     1      55.900  18.670  -7.584  0.00  0.00    +0.178 C 
ATOM      5  O   UNL     1      57.077  19.443  -7.624  0.00  0.00    -0.346 OA
ENDROOT
BRANCH   1   6
ATOM      6  N   UNL     1      59.272  19.035  -6.820  0.00  0.00    -0.271 N 
ATOM      7  C   UNL     1      60.536  19.227  -7.329  0.00  0.00    +0.331 A 
ATOM      8  N   UNL     1      61.532  19.705  -6.533  0.00  0.00    -0.275 N 
ATOM      9  C   UNL     1      61.303  20.015  -5.230  0.00  0.00    +0.254 A 
ATOM     10  C   UNL     1      60.031  19.848  -4.693  0.00  0.00    +0.088 A 
ATOM     11  C   UNL     1      59.019  19.357  -5.514  0.00  0.00    +0.098 A 
ATOM     12  O   UNL     1      60.788  18.970  -8.538  0.00  0.00    -0.246 OA
ATOM     13  O   UNL     1      62.238  20.456  -4.510  0.00  0.00    -0.268 OA
ATOM     14  H   UNL     1      62.490  19.842  -6.931  0.00  0.00    +0.173 HD
ENDBRANCH   1   6
BRANCH   2  15
ATOM     15  O   UNL     1      57.872  16.174  -8.176  0.00  0.00    -0.385 OA
ATOM     16  H   UNL     1      57.671  16.586  -9.057  0.00  0.00    +0.210 HD
ENDBRANCH   2  15
BRANCH   3  17
ATOM     17  O   UNL     1      55.396  16.328  -7.296  0.00  0.00    -0.386 OA
ATOM     18  H   UNL     1      54.463  16.665  -7.241  0.00  0.00    +0.210 HD
ENDBRANCH   3  17
BRANCH   4  19
ATOM     19  C   UNL     1      54.780  19.457  -6.898  0.00  0.00    +0.206 C 
BRANCH  19  20
ATOM     20  O   UNL     1      53.934  20.003  -7.883  0.00  0.00    -0.284 OA
BRANCH  20  21
ATOM     21  P   UNL     1      52.451  19.164  -7.834  0.00  0.00    +0.483 P 
ATOM     22  O   UNL     1      52.657  17.881  -7.059  0.00  0.00    -0.227 OA
BRANCH  21  23
ATOM     23  O   UNL     1      51.294  20.115  -7.041  0.00  0.00    -0.302 OA
ATOM     24  H   UNL     1      51.591  21.049  -7.186  0.00  0.00    +0.222 HD
ENDBRANCH  21  23
BRANCH  21  25
ATOM     25  O   UNL     1      51.968  18.795  -9.426  0.00  0.00    -0.186 OA
BRANCH  25  26
ATOM     26  P   UNL     1      50.835  17.528  -9.344  0.00  0.00    +0.481 P 
ATOM     27  O   UNL     1      49.984  17.562 -10.592  0.00  0.00    -0.227 OA
BRANCH  26  28
ATOM     28  O   UNL     1      51.610  16.025  -9.249  0.00  0.00    -0.302 OA
ATOM     29  H   UNL     1      51.918  15.958  -8.309  0.00  0.00    +0.222 HD
ENDBRANCH  26  28
BRANCH  26  30
ATOM     30  O   UNL     1      49.832  17.737  -7.996  0.00  0.00    -0.302 OA
ATOM     31  H   UNL     1      50.308  18.392  -7.426  0.00  0.00    +0.222 HD
ENDBRANCH  26  30
ENDBRANCH  25  26
ENDBRANCH  21  25
ENDBRANCH  20  21
ENDBRANCH  19  20
ENDBRANCH   4  19
TORSDOF 11
ENDMDL
MODEL 5
REMARK VINA RESULT:    -6.978      4.189      7.657
REMARK INTER + INTRA:         -11.768
REMARK INTER:                 -10.265
REMARK INTRA:                  -1.503
REMARK UNBOUND:                -1.322
REMARK  Name = UDP
REMARK  11 active torsions:
REMARK  status: ('A' for Active; 'I' for Inactive)
REMARK    1  A    between atoms: N_1  and  C_9
REMARK    2  A    between atoms: C_10  and  O_11
REMARK    3  A    between atoms: C_12  and  O_15
REMARK    4  A    between atoms: C_13  and  C_16
REMARK    5  A    between atoms: C_16  and  O_17
REMARK    6  A    between atoms: O_17  and  P_18
REMARK    7  A    between atoms: P_18  and  O_20
REMARK    8  A    between atoms: P_18  and  O_21
REMARK    9  A    between atoms: O_21  and  P_22
REMARK   10  A    between atoms: P_22  and  O_24
REMARK   11  A    between atoms: P_22  and  O_25
REMARK                            x       y       z     vdW  Elec       q    Type
REMARK                         _______ _______ _______ _____ _____    ______ ____
ROOT
ATOM      1  C   UNL     1      60.358  20.017  -4.570  0.00  0.00    +0.255 C 
ATOM      2  C   UNL     1      61.582  19.092  -4.444  0.00  0.00    +0.195 C 
ATOM      3  C   UNL     1      61.735  18.506  -5.836  0.00  0.00    +0.178 C 
ATOM      4  C   UNL     1      60.923  19.468  -6.695  0.00  0.00    +0.178 C 
ATOM      5  O   UNL     1      59.879  19.980  -5.899  0.00  0.00    -0.346 OA
ENDROOT
BRANCH   1   6
ATOM      6  N   UNL     1      59.291  19.617  -3.628  0.00  0.00    -0.271 N 
ATOM      7  C   UNL     1      58.473  20.543  -3.023  0.00  0.00    +0.331 A 
ATOM      8  N   UNL     1      57.487  20.138  -2.175  0.00  0.00    -0.275 N 
ATOM      9  C   UNL     1      57.278  18.821  -1.918  0.00  0.00    +0.254 A 
ATOM     10  C   UNL     1      58.077  17.862  -2.530  0.00  0.00    +0.088 A 
ATOM     11  C   UNL     1      59.084  18.285  -3.394  0.00  0.00    +0.098 A 
ATOM     12  O   UNL     1      58.620  21.775  -3.248  0.00  0.00    -0.246 OA
ATOM     13  O   UNL     1      56.360  18.467  -1.131  0.00  0.00    -0.268 OA
ATOM     14  H   UNL     1      56.876  20.853  -1.717  0.00  0.00    +0.173 HD
ENDBRANCH   1   6
BRANCH   2  15
ATOM     15  O   UNL     1      62.725  19.805  -4.029  0.00  0.00    -0.385 OA
ATOM     16  H   UNL     1      62.426  20.568  -3.467  0.00  0.00    +0.210 HD
ENDBRANCH   2  15
BRANCH   3  17
ATOM     17  O   UNL     1      63.072  18.459  -6.264  0.00  0.00    -0.386 OA
ATOM     18  H   UNL     1      63.136  17.693  -6.893  0.00  0.00    +0.210 HD
ENDBRANCH   3  17
BRANCH   4  19
ATOM     19  C   UNL     1      60.346  18.781  -7.935  0.00  0.00    +0.206 C 
BRANCH  19  20
ATOM     20  O   UNL     1      59.851  17.515  -7.571  0.00  0.00    -0.284 OA
BRANCH  20  21
ATOM     21  P   UNL     1      58.164  17.513  -7.812  0.00  0.00    +0.483 P 
ATOM     22  O   UNL     1      57.818  18.647  -8.751  0.00  0.00    -0.227 OA
BRANCH  21  23
ATOM     23  O   UNL     1      57.699  16.043  -8.518  0.00  0.00    -0.302 OA
ATOM     24  H   UNL     1      56.815  15.840  -8.121  0.00  0.00    +0.222 HD
ENDBRANCH  21  23
BRANCH  21  25
ATOM     25  O   UNL     1      57.387  17.757  -6.316  0.00  0.00    -0.186 OA
BRANCH  25  26
ATOM     26  P   UNL     1      55.709  17.742  -6.594  0.00  0.00    +0.481 P 
ATOM     27  O   UNL     1      55.324  16.392  -7.153  0.00  0.00    -0.227 OA
BRANCH  26  28
ATOM     28  O   UNL     1      54.852  18.004  -5.156  0.00  0.00    -0.302 OA
ATOM     29  H   UNL     1      55.283  17.407  -4.492  0.00  0.00    +0.222 HD
ENDBRANCH  26  28
BRANCH  26  30
ATOM     30  O   UNL     1      55.300  18.935  -7.724  0.00  0.00    -0.302 OA
ATOM     31  H   UNL     1      55.777  19.747  -7.417  0.00  0.00    +0.222 HD
ENDBRANCH  26  30
ENDBRANCH  25  26
ENDBRANCH  21  25
ENDBRANCH  20  21
ENDBRANCH  19  20
ENDBRANCH   4  19
TORSDOF 11
ENDMDL
MODEL 6
REMARK VINA RESULT:    -6.916      3.990      5.571
REMARK INTER + INTRA:         -11.675
REMARK INTER:                  -9.875
REMARK INTRA:                  -1.800
REMARK UNBOUND:                -1.322
REMARK  Name = UDP
REMARK  11 active torsions:
REMARK  status: ('A' for Active; 'I' for Inactive)
REMARK    1  A    between atoms: N_1  and  C_9
REMARK    2  A    between atoms: C_10  and  O_11
REMARK    3  A    between atoms: C_12  and  O_15
REMARK    4  A    between atoms: C_13  and  C_16
REMARK    5  A    between atoms: C_16  and  O_17
REMARK    6  A    between atoms: O_17  and  P_18
REMARK    7  A    between atoms: P_18  and  O_20
REMARK    8  A    between atoms: P_18  and  O_21
REMARK    9  A    between atoms: O_21  and  P_22
REMARK   10  A    between atoms: P_22  and  O_24
REMARK   11  A    between atoms: P_22  and  O_25
REMARK                            x       y       z     vdW  Elec       q    Type
REMARK                         _______ _______ _______ _____ _____    ______ ____
ROOT
ATOM      1  C   UNL     1      58.157  18.577  -7.700  0.00  0.00    +0.255 C 
ATOM      2  C   UNL     1      57.813  17.126  -7.320  0.00  0.00    +0.195 C 
ATOM      3  C   UNL     1      56.384  17.214  -6.817  0.00  0.00    +0.178 C 
ATOM      4  C   UNL     1      55.914  18.550  -7.380  0.00  0.00    +0.178 C 
ATOM      5  O   UNL     1      57.033  19.400  -7.462  0.00  0.00    -0.346 OA
ENDROOT
BRANCH   1   6
ATOM      6  N   UNL     1      59.323  19.065  -6.935  0.00  0.00    -0.271 N 
ATOM      7  C   UNL     1      60.555  19.240  -7.522  0.00  0.00    +0.331 A 
ATOM      8  N   UNL     1      61.604  19.710  -6.792  0.00  0.00    -0.275 N 
ATOM      9  C   UNL     1      61.459  20.030  -5.479  0.00  0.00    +0.254 A 
ATOM     10  C   UNL     1      60.221  19.881  -4.864  0.00  0.00    +0.088 A 
ATOM     11  C   UNL     1      59.155  19.398  -5.618  0.00  0.00    +0.098 A 
ATOM     12  O   UNL     1      60.729  18.973  -8.743  0.00  0.00    -0.246 OA
ATOM     13  O   UNL     1      62.442  20.464  -4.821  0.00  0.00    -0.268 OA
ATOM     14  H   UNL     1      62.537  19.833  -7.249  0.00  0.00    +0.173 HD
ENDBRANCH   1   6
BRANCH   2  15
ATOM     15  O   UNL     1      57.947  16.259  -8.424  0.00  0.00    -0.385 OA
ATOM     16  H   UNL     1      58.359  16.770  -9.169  0.00  0.00    +0.210 HD
ENDBRANCH   2  15
BRANCH   3  17
ATOM     17  O   UNL     1      55.577  16.163  -7.281  0.00  0.00    -0.386 OA
ATOM     18  H   UNL     1      54.982  16.553  -7.974  0.00  0.00    +0.210 HD
ENDBRANCH   3  17
BRANCH   4  19
ATOM     19  C   UNL     1      54.833  19.191  -6.506  0.00  0.00    +0.206 C 
BRANCH  19  20
ATOM     20  O   UNL     1      55.434  20.135  -5.651  0.00  0.00    -0.284 OA
BRANCH  20  21
ATOM     21  P   UNL     1      54.213  20.836  -4.690  0.00  0.00    +0.483 P 
ATOM     22  O   UNL     1      54.480  22.322  -4.594  0.00  0.00    -0.227 OA
BRANCH  21  23
ATOM     23  O   UNL     1      52.707  20.587  -5.427  0.00  0.00    -0.302 OA
ATOM     24  H   UNL     1      52.860  20.773  -6.388  0.00  0.00    +0.222 HD
ENDBRANCH  21  23
BRANCH  21  25
ATOM     25  O   UNL     1      54.266  20.146  -3.134  0.00  0.00    -0.186 OA
BRANCH  25  26
ATOM     26  P   UNL     1      55.898  19.856  -2.750  0.00  0.00    +0.481 P 
ATOM     27  O   UNL     1      56.029  19.747  -1.248  0.00  0.00    -0.227 OA
BRANCH  26  28
ATOM     28  O   UNL     1      56.440  18.414  -3.454  0.00  0.00    -0.302 OA
ATOM     29  H   UNL     1      55.967  17.697  -2.959  0.00  0.00    +0.222 HD
ENDBRANCH  26  28
BRANCH  26  30
ATOM     30  O   UNL     1      56.856  21.145  -3.287  0.00  0.00    -0.302 OA
ATOM     31  H   UNL     1      56.277  21.645  -3.915  0.00  0.00    +0.222 HD
ENDBRANCH  26  30
ENDBRANCH  25  26
ENDBRANCH  21  25
ENDBRANCH  20  21
ENDBRANCH  19  20
ENDBRANCH   4  19
TORSDOF 11
ENDMDL
MODEL 7
REMARK VINA RESULT:    -6.910      5.593      7.156
REMARK INTER + INTRA:         -11.665
REMARK INTER:                  -9.892
REMARK INTRA:                  -1.774
REMARK UNBOUND:                -1.322
REMARK  Name = UDP
REMARK  11 active torsions:
REMARK  status: ('A' for Active; 'I' for Inactive)
REMARK    1  A    between atoms: N_1  and  C_9
REMARK    2  A    between atoms: C_10  and  O_11
REMARK    3  A    between atoms: C_12  and  O_15
REMARK    4  A    between atoms: C_13  and  C_16
REMARK    5  A    between atoms: C_16  and  O_17
REMARK    6  A    between atoms: O_17  and  P_18
REMARK    7  A    between atoms: P_18  and  O_20
REMARK    8  A    between atoms: P_18  and  O_21
REMARK    9  A    between atoms: O_21  and  P_22
REMARK   10  A    between atoms: P_22  and  O_24
REMARK   11  A    between atoms: P_22  and  O_25
REMARK                            x       y       z     vdW  Elec       q    Type
REMARK                         _______ _______ _______ _____ _____    ______ ____
ROOT
ATOM      1  C   UNL     1      57.713  17.838  -7.634  0.00  0.00    +0.255 C 
ATOM      2  C   UNL     1      56.994  16.642  -6.985  0.00  0.00    +0.195 C 
ATOM      3  C   UNL     1      55.862  17.283  -6.203  0.00  0.00    +0.178 C 
ATOM      4  C   UNL     1      55.760  18.665  -6.837  0.00  0.00    +0.178 C 
ATOM      5  O   UNL     1      57.046  19.032  -7.280  0.00  0.00    -0.346 OA
ENDROOT
BRANCH   1   6
ATOM      6  N   UNL     1      59.129  17.897  -7.217  0.00  0.00    -0.271 N 
ATOM      7  C   UNL     1      60.116  18.355  -8.060  0.00  0.00    +0.331 A 
ATOM      8  N   UNL     1      61.409  18.415  -7.636  0.00  0.00    -0.275 N 
ATOM      9  C   UNL     1      61.753  18.041  -6.375  0.00  0.00    +0.254 A 
ATOM     10  C   UNL     1      60.774  17.593  -5.496  0.00  0.00    +0.088 A 
ATOM     11  C   UNL     1      59.455  17.533  -5.939  0.00  0.00    +0.098 A 
ATOM     12  O   UNL     1      59.838  18.729  -9.232  0.00  0.00    -0.246 OA
ATOM     13  O   UNL     1      62.955  18.104  -6.003  0.00  0.00    -0.268 OA
ATOM     14  H   UNL     1      62.150  18.759  -8.289  0.00  0.00    +0.173 HD
ENDBRANCH   1   6
BRANCH   2  15
ATOM     15  O   UNL     1      56.533  15.730  -7.956  0.00  0.00    -0.385 OA
ATOM     16  H   UNL     1      57.043  15.887  -8.794  0.00  0.00    +0.210 HD
ENDBRANCH   2  15
BRANCH   3  17
ATOM     17  O   UNL     1      54.650  16.584  -6.327  0.00  0.00    -0.386 OA
ATOM     18  H   UNL     1      53.984  17.084  -5.786  0.00  0.00    +0.210 HD
ENDBRANCH   3  17
BRANCH   4  19
ATOM     19  C   UNL     1      55.229  19.709  -5.851  0.00  0.00    +0.206 C 
BRANCH  19  20
ATOM     20  O   UNL     1      54.276  20.515  -6.505  0.00  0.00    -0.284 OA
BRANCH  20  21
ATOM     21  P   UNL     1      52.752  20.208  -5.808  0.00  0.00    +0.483 P 
ATOM     22  O   UNL     1      52.770  18.814  -5.220  0.00  0.00    -0.227 OA
BRANCH  21  23
ATOM     23  O   UNL     1      52.464  21.331  -4.571  0.00  0.00    -0.302 OA
ATOM     24  H   UNL     1      53.079  21.067  -3.841  0.00  0.00    +0.222 HD
ENDBRANCH  21  23
BRANCH  21  25
ATOM     25  O   UNL     1      51.558  20.298  -7.020  0.00  0.00    -0.186 OA
BRANCH  25  26
ATOM     26  P   UNL     1      52.037  19.281  -8.297  0.00  0.00    +0.481 P 
ATOM     27  O   UNL     1      50.867  19.104  -9.238  0.00  0.00    -0.227 OA
BRANCH  26  28
ATOM     28  O   UNL     1      53.334  19.951  -9.155  0.00  0.00    -0.302 OA
ATOM     29  H   UNL     1      54.125  19.427  -8.869  0.00  0.00    +0.222 HD
ENDBRANCH  26  28
BRANCH  26  30
ATOM     30  O   UNL     1      52.481  17.763  -7.691  0.00  0.00    -0.302 OA
ATOM     31  H   UNL     1      52.897  17.297  -8.458  0.00  0.00    +0.222 HD
ENDBRANCH  26  30
ENDBRANCH  25  26
ENDBRANCH  21  25
ENDBRANCH  20  21
ENDBRANCH  19  20
ENDBRANCH   4  19
TORSDOF 11
ENDMDL
MODEL 8
REMARK VINA RESULT:    -6.863      5.174      7.382
REMARK INTER + INTRA:         -11.596
REMARK INTER:                  -9.887
REMARK INTRA:                  -1.709
REMARK UNBOUND:                -1.322
REMARK  Name = UDP
REMARK  11 active torsions:
REMARK  status: ('A' for Active; 'I' for Inactive)
REMARK    1  A    between atoms: N_1  and  C_9
REMARK    2  A    between atoms: C_10  and  O_11
REMARK    3  A    between atoms: C_12  and  O_15
REMARK    4  A    between atoms: C_13  and  C_16
REMARK    5  A    between atoms: C_16  and  O_17
REMARK    6  A    between atoms: O_17  and  P_18
REMARK    7  A    between atoms: P_18  and  O_20
REMARK    8  A    between atoms: P_18  and  O_21
REMARK    9  A    between atoms: O_21  and  P_22
REMARK   10  A    between atoms: P_22  and  O_24
REMARK   11  A    between atoms: P_22  and  O_25
REMARK                            x       y       z     vdW  Elec       q    Type
REMARK                         _______ _______ _______ _____ _____    ______ ____
ROOT
ATOM      1  C   UNL     1      56.293  17.387  -6.929  0.00  0.00    +0.255 C 
ATOM      2  C   UNL     1      55.875  18.863  -7.053  0.00  0.00    +0.195 C 
ATOM      3  C   UNL     1      57.081  19.526  -7.693  0.00  0.00    +0.178 C 
ATOM      4  C   UNL     1      57.840  18.343  -8.281  0.00  0.00    +0.178 C 
ATOM      5  O   UNL     1      57.590  17.223  -7.465  0.00  0.00    -0.346 OA
ENDROOT
BRANCH   1   6
ATOM      6  N   UNL     1      56.258  16.941  -5.521  0.00  0.00    -0.271 N 
ATOM      7  C   UNL     1      55.074  16.685  -4.869  0.00  0.00    +0.331 A 
ATOM      8  N   UNL     1      55.079  16.256  -3.576  0.00  0.00    -0.275 N 
ATOM      9  C   UNL     1      56.244  16.059  -2.906  0.00  0.00    +0.254 A 
ATOM     10  C   UNL     1      57.457  16.293  -3.545  0.00  0.00    +0.088 A 
ATOM     11  C   UNL     1      57.442  16.732  -4.866  0.00  0.00    +0.098 A 
ATOM     12  O   UNL     1      53.969  16.837  -5.460  0.00  0.00    -0.246 OA
ATOM     13  O   UNL     1      56.228  15.663  -1.711  0.00  0.00    -0.268 OA
ATOM     14  H   UNL     1      54.171  16.071  -3.091  0.00  0.00    +0.173 HD
ENDBRANCH   1   6
BRANCH   2  15
ATOM     15  O   UNL     1      54.705  19.003  -7.827  0.00  0.00    -0.385 OA
ATOM     16  H   UNL     1      54.878  19.685  -8.528  0.00  0.00    +0.210 HD
ENDBRANCH   2  15
BRANCH   3  17
ATOM     17  O   UNL     1      56.729  20.445  -8.696  0.00  0.00    -0.386 OA
ATOM     18  H   UNL     1      55.818  20.770  -8.469  0.00  0.00    +0.210 HD
ENDBRANCH   3  17
BRANCH   4  19
ATOM     19  C   UNL     1      59.345  18.610  -8.358  0.00  0.00    +0.206 C 
BRANCH  19  20
ATOM     20  O   UNL     1      60.037  17.474  -7.893  0.00  0.00    -0.284 OA
BRANCH  20  21
ATOM     21  P   UNL     1      60.931  17.923  -6.514  0.00  0.00    +0.483 P 
ATOM     22  O   UNL     1      61.202  16.678  -5.698  0.00  0.00    -0.227 OA
BRANCH  21  23
ATOM     23  O   UNL     1      62.406  18.604  -6.998  0.00  0.00    -0.302 OA
ATOM     24  H   UNL     1      63.003  18.499  -6.214  0.00  0.00    +0.222 HD
ENDBRANCH  21  23
BRANCH  21  25
ATOM     25  O   UNL     1      60.013  19.020  -5.589  0.00  0.00    -0.186 OA
BRANCH  25  26
ATOM     26  P   UNL     1      61.084  19.856  -4.563  0.00  0.00    +0.481 P 
ATOM     27  O   UNL     1      61.638  21.046  -5.311  0.00  0.00    -0.227 OA
BRANCH  26  28
ATOM     28  O   UNL     1      60.288  20.404  -3.172  0.00  0.00    -0.302 OA
ATOM     29  H   UNL     1      60.176  19.596  -2.609  0.00  0.00    +0.222 HD
ENDBRANCH  26  28
BRANCH  26  30
ATOM     30  O   UNL     1      62.368  18.845  -4.122  0.00  0.00    -0.302 OA
ATOM     31  H   UNL     1      62.865  18.686  -4.963  0.00  0.00    +0.222 HD
ENDBRANCH  26  30
ENDBRANCH  25  26
ENDBRANCH  21  25
ENDBRANCH  20  21
ENDBRANCH  19  20
ENDBRANCH   4  19
TORSDOF 11
ENDMDL
MODEL 9
REMARK VINA RESULT:    -6.738      7.396     10.911
REMARK INTER + INTRA:         -11.409
REMARK INTER:                  -9.386
REMARK INTRA:                  -2.023
REMARK UNBOUND:                -1.322
REMARK  Name = UDP
REMARK  11 active torsions:
REMARK  status: ('A' for Active; 'I' for Inactive)
REMARK    1  A    between atoms: N_1  and  C_9
REMARK    2  A    between atoms: C_10  and  O_11
REMARK    3  A    between atoms: C_12  and  O_15
REMARK    4  A    between atoms: C_13  and  C_16
REMARK    5  A    between atoms: C_16  and  O_17
REMARK    6  A    between atoms: O_17  and  P_18
REMARK    7  A    between atoms: P_18  and  O_20
REMARK    8  A    between atoms: P_18  and  O_21
REMARK    9  A    between atoms: O_21  and  P_22
REMARK   10  A    between atoms: P_22  and  O_24
REMARK   11  A    between atoms: P_22  and  O_25
REMARK                            x       y       z     vdW  Elec       q    Type
REMARK                         _______ _______ _______ _____ _____    ______ ____
ROOT
ATOM      1  C   UNL     1      55.234  18.995   2.805  0.00  0.00    +0.255 C 
ATOM      2  C   UNL     1      56.570  18.238   2.913  0.00  0.00    +0.195 C 
ATOM      3  C   UNL     1      56.158  16.777   2.907  0.00  0.00    +0.178 C 
ATOM      4  C   UNL     1      54.744  16.831   2.342  0.00  0.00    +0.178 C 
ATOM      5  O   UNL     1      54.175  18.062   2.722  0.00  0.00    -0.346 OA
ENDROOT
BRANCH   1   6
ATOM      6  N   UNL     1      55.038  19.893   3.962  0.00  0.00    -0.271 N 
ATOM      7  C   UNL     1      55.416  21.216   3.926  0.00  0.00    +0.331 A 
ATOM      8  N   UNL     1      55.202  22.021   5.003  0.00  0.00    -0.275 N 
ATOM      9  C   UNL     1      54.603  21.548   6.127  0.00  0.00    +0.254 A 
ATOM     10  C   UNL     1      54.193  20.220   6.184  0.00  0.00    +0.088 A 
ATOM     11  C   UNL     1      54.417  19.404   5.079  0.00  0.00    +0.098 A 
ATOM     12  O   UNL     1      55.960  21.701   2.896  0.00  0.00    -0.246 OA
ATOM     13  O   UNL     1      54.414  22.309   7.112  0.00  0.00    -0.268 OA
ATOM     14  H   UNL     1      55.500  23.023   4.965  0.00  0.00    +0.173 HD
ENDBRANCH   1   6
BRANCH   2  15
ATOM     15  O   UNL     1      57.432  18.562   1.845  0.00  0.00    -0.385 OA
ATOM     16  H   UNL     1      57.449  17.792   1.218  0.00  0.00    +0.210 HD
ENDBRANCH   2  15
BRANCH   3  17
ATOM     17  O   UNL     1      56.989  15.980   2.103  0.00  0.00    -0.386 OA
ATOM     18  H   UNL     1      56.961  15.067   2.493  0.00  0.00    +0.210 HD
ENDBRANCH   3  17
BRANCH   4  19
ATOM     19  C   UNL     1      53.879  15.676   2.852  0.00  0.00    +0.206 C 
BRANCH  19  20
ATOM     20  O   UNL     1      53.689  14.749   1.809  0.00  0.00    -0.284 OA
BRANCH  20  21
ATOM     21  P   UNL     1      54.478  13.300   2.234  0.00  0.00    +0.483 P 
ATOM     22  O   UNL     1      54.864  13.380   3.695  0.00  0.00    -0.227 OA
BRANCH  21  23
ATOM     23  O   UNL     1      53.418  11.996   2.008  0.00  0.00    -0.302 OA
ATOM     24  H   UNL     1      52.519  12.408   1.949  0.00  0.00    +0.222 HD
ENDBRANCH  21  23
BRANCH  21  25
ATOM     25  O   UNL     1      55.882  13.131   1.284  0.00  0.00    -0.186 OA
BRANCH  25  26
ATOM     26  P   UNL     1      55.481  13.558  -0.314  0.00  0.00    +0.481 P 
ATOM     27  O   UNL     1      56.470  12.902  -1.250  0.00  0.00    -0.227 OA
BRANCH  26  28
ATOM     28  O   UNL     1      53.920  13.033  -0.710  0.00  0.00    -0.302 OA
ATOM     29  H   UNL     1      53.782  12.215  -0.167  0.00  0.00    +0.222 HD
ENDBRANCH  26  28
BRANCH  26  30
ATOM     30  O   UNL     1      55.582  15.237  -0.506  0.00  0.00    -0.302 OA
ATOM     31  H   UNL     1      54.668  15.568  -0.317  0.00  0.00    +0.222 HD
ENDBRANCH  26  30
ENDBRANCH  25  26
ENDBRANCH  21  25
ENDBRANCH  20  21
ENDBRANCH  19  20
ENDBRANCH   4  19
TORSDOF 11
ENDMDL
MODEL 10
REMARK VINA RESULT:    -6.727      3.889      8.167
REMARK INTER + INTRA:         -11.392
REMARK INTER:                  -9.843
REMARK INTRA:                  -1.549
REMARK UNBOUND:                -1.322
REMARK  Name = UDP
REMARK  11 active torsions:
REMARK  status: ('A' for Active; 'I' for Inactive)
REMARK    1  A    between atoms: N_1  and  C_9
REMARK    2  A    between atoms: C_10  and  O_11
REMARK    3  A    between atoms: C_12  and  O_15
REMARK    4  A    between atoms: C_13  and  C_16
REMARK    5  A    between atoms: C_16  and  O_17
REMARK    6  A    between atoms: O_17  and  P_18
REMARK    7  A    between atoms: P_18  and  O_20
REMARK    8  A    between atoms: P_18  and  O_21
REMARK    9  A    between atoms: O_21  and  P_22
REMARK   10  A    between atoms: P_22  and  O_24
REMARK   11  A    between atoms: P_22  and  O_25
REMARK                            x       y       z     vdW  Elec       q    Type
REMARK                         _______ _______ _______ _____ _____    ______ ____
ROOT
ATOM      1  C   UNL     1      58.263  21.843  -1.825  0.00  0.00    +0.255 C 
ATOM      2  C   UNL     1      57.730  20.624  -1.051  0.00  0.00    +0.195 C 
ATOM      3  C   UNL     1      57.647  19.536  -2.106  0.00  0.00    +0.178 C 
ATOM      4  C   UNL     1      58.546  20.074  -3.213  0.00  0.00    +0.178 C 
ATOM      5  O   UNL     1      58.483  21.480  -3.173  0.00  0.00    -0.346 OA
ENDROOT
BRANCH   1   6
ATOM      6  N   UNL     1      57.319  22.977  -1.746  0.00  0.00    -0.271 N 
ATOM      7  C   UNL     1      57.580  24.086  -0.974  0.00  0.00    +0.331 A 
ATOM      8  N   UNL     1      56.696  25.122  -0.939  0.00  0.00    -0.275 N 
ATOM      9  C   UNL     1      55.551  25.094  -1.669  0.00  0.00    +0.254 A 
ATOM     10  C   UNL     1      55.270  23.994  -2.472  0.00  0.00    +0.088 A 
ATOM     11  C   UNL     1      56.178  22.939  -2.501  0.00  0.00    +0.098 A 
ATOM     12  O   UNL     1      58.640  24.161  -0.295  0.00  0.00    -0.246 OA
ATOM     13  O   UNL     1      54.747  26.062  -1.623  0.00  0.00    -0.268 OA
ATOM     14  H   UNL     1      56.904  25.956  -0.344  0.00  0.00    +0.173 HD
ENDBRANCH   1   6
BRANCH   2  15
ATOM     15  O   UNL     1      58.585  20.279   0.016  0.00  0.00    -0.385 OA
ATOM     16  H   UNL     1      58.619  21.047   0.645  0.00  0.00    +0.210 HD
ENDBRANCH   2  15
BRANCH   3  17
ATOM     17  O   UNL     1      58.110  18.292  -1.645  0.00  0.00    -0.386 OA
ATOM     18  H   UNL     1      58.587  17.872  -2.408  0.00  0.00    +0.210 HD
ENDBRANCH   3  17
BRANCH   4  19
ATOM     19  C   UNL     1      58.119  19.569  -4.594  0.00  0.00    +0.206 C 
BRANCH  19  20
ATOM     20  O   UNL     1      58.439  18.203  -4.702  0.00  0.00    -0.284 OA
BRANCH  20  21
ATOM     21  P   UNL     1      59.360  17.983  -6.119  0.00  0.00    +0.483 P 
ATOM     22  O   UNL     1      58.429  17.537  -7.226  0.00  0.00    -0.227 OA
BRANCH  21  23
ATOM     23  O   UNL     1      60.079  19.455  -6.556  0.00  0.00    -0.302 OA
ATOM     24  H   UNL     1      61.019  19.225  -6.768  0.00  0.00    +0.222 HD
ENDBRANCH  21  23
BRANCH  21  25
ATOM     25  O   UNL     1      60.530  16.777  -5.841  0.00  0.00    -0.186 OA
BRANCH  25  26
ATOM     26  P   UNL     1      61.963  17.551  -5.345  0.00  0.00    +0.481 P 
ATOM     27  O   UNL     1      62.861  16.527  -4.688  0.00  0.00    -0.227 OA
BRANCH  26  28
ATOM     28  O   UNL     1      62.778  18.227  -6.666  0.00  0.00    -0.302 OA
ATOM     29  H   UNL     1      62.705  17.547  -7.384  0.00  0.00    +0.222 HD
ENDBRANCH  26  28
BRANCH  26  30
ATOM     30  O   UNL     1      61.604  18.762  -4.218  0.00  0.00    -0.302 OA
ATOM     31  H   UNL     1      62.354  18.736  -3.571  0.00  0.00    +0.222 HD
ENDBRANCH  26  30
ENDBRANCH  25  26
ENDBRANCH  21  25
ENDBRANCH  20  21
ENDBRANCH  19  20
ENDBRANCH   4  19
TORSDOF 11
ENDMDL
MODEL 11
REMARK VINA RESULT:    -6.722      6.186      8.112
REMARK INTER + INTRA:         -11.384
REMARK INTER:                 -10.154
REMARK INTRA:                  -1.231
REMARK UNBOUND:                -1.322
REMARK  Name = UDP
REMARK  11 active torsions:
REMARK  status: ('A' for Active; 'I' for Inactive)
REMARK    1  A    between atoms: N_1  and  C_9
REMARK    2  A    between atoms: C_10  and  O_11
REMARK    3  A    between atoms: C_12  and  O_15
REMARK    4  A    between atoms: C_13  and  C_16
REMARK    5  A    between atoms: C_16  and  O_17
REMARK    6  A    between atoms: O_17  and  P_18
REMARK    7  A    between atoms: P_18  and  O_20
REMARK    8  A    between atoms: P_18  and  O_21
REMARK    9  A    between atoms: O_21  and  P_22
REMARK   10  A    between atoms: P_22  and  O_24
REMARK   11  A    between atoms: P_22  and  O_25
REMARK                            x       y       z     vdW  Elec       q    Type
REMARK                         _______ _______ _______ _____ _____    ______ ____
ROOT
ATOM      1  C   UNL     1      55.929  24.343   1.869  0.00  0.00    +0.255 C 
ATOM      2  C   UNL     1      57.154  24.794   1.054  0.00  0.00    +0.195 C 
ATOM      3  C   UNL     1      56.552  25.335  -0.230  0.00  0.00    +0.178 C 
ATOM      4  C   UNL     1      55.097  25.571   0.156  0.00  0.00    +0.178 C 
ATOM      5  O   UNL     1      54.753  24.620   1.137  0.00  0.00    -0.346 OA
ENDROOT
BRANCH   1   6
ATOM      6  N   UNL     1      56.006  22.902   2.191  0.00  0.00    -0.271 N 
ATOM      7  C   UNL     1      55.543  22.399   3.385  0.00  0.00    +0.331 A 
ATOM      8  N   UNL     1      55.611  21.063   3.641  0.00  0.00    -0.275 N 
ATOM      9  C   UNL     1      56.121  20.198   2.726  0.00  0.00    +0.254 A 
ATOM     10  C   UNL     1      56.580  20.676   1.503  0.00  0.00    +0.088 A 
ATOM     11  C   UNL     1      56.508  22.043   1.251  0.00  0.00    +0.098 A 
ATOM     12  O   UNL     1      55.045  23.165   4.255  0.00  0.00    -0.246 OA
ATOM     13  O   UNL     1      56.176  18.966   2.982  0.00  0.00    -0.268 OA
ATOM     14  H   UNL     1      55.261  20.695   4.555  0.00  0.00    +0.173 HD
ENDBRANCH   1   6
BRANCH   2  15
ATOM     15  O   UNL     1      57.907  25.762   1.750  0.00  0.00    -0.385 OA
ATOM     16  H   UNL     1      58.531  26.189   1.106  0.00  0.00    +0.210 HD
ENDBRANCH   2  15
BRANCH   3  17
ATOM     17  O   UNL     1      57.158  26.530  -0.655  0.00  0.00    -0.386 OA
ATOM     18  H   UNL     1      56.580  27.267  -0.326  0.00  0.00    +0.210 HD
ENDBRANCH   3  17
BRANCH   4  19
ATOM     19  C   UNL     1      54.158  25.445  -1.046  0.00  0.00    +0.206 C 
BRANCH  19  20
ATOM     20  O   UNL     1      53.229  26.503  -1.016  0.00  0.00    -0.284 OA
BRANCH  20  21
ATOM     21  P   UNL     1      51.734  25.883  -0.483  0.00  0.00    +0.483 P 
ATOM     22  O   UNL     1      51.048  25.223  -1.658  0.00  0.00    -0.227 OA
BRANCH  21  23
ATOM     23  O   UNL     1      52.005  24.726   0.726  0.00  0.00    -0.302 OA
ATOM     24  H   UNL     1      52.912  24.928   1.072  0.00  0.00    +0.222 HD
ENDBRANCH  21  23
BRANCH  21  25
ATOM     25  O   UNL     1      50.772  27.167   0.089  0.00  0.00    -0.186 OA
BRANCH  25  26
ATOM     26  P   UNL     1      49.238  26.536   0.469  0.00  0.00    +0.481 P 
ATOM     27  O   UNL     1      48.814  27.077   1.816  0.00  0.00    -0.227 OA
BRANCH  26  28
ATOM     28  O   UNL     1      48.090  26.990  -0.690  0.00  0.00    -0.302 OA
ATOM     29  H   UNL     1      47.481  27.611  -0.214  0.00  0.00    +0.222 HD
ENDBRANCH  26  28
BRANCH  26  30
ATOM     30  O   UNL     1      49.315  24.847   0.562  0.00  0.00    -0.302 OA
ATOM     31  H   UNL     1      48.667  24.528  -0.115  0.00  0.00    +0.222 HD
ENDBRANCH  26  30
ENDBRANCH  25  26
ENDBRANCH  21  25
ENDBRANCH  20  21
ENDBRANCH  19  20
ENDBRANCH   4  19
TORSDOF 11
ENDMDL
MODEL 12
REMARK VINA RESULT:    -6.705      5.153      7.041
REMARK INTER + INTRA:         -11.359
REMARK INTER:                  -9.667
REMARK INTRA:                  -1.692
REMARK UNBOUND:                -1.322
REMARK  Name = UDP
REMARK  11 active torsions:
REMARK  status: ('A' for Active; 'I' for Inactive)
REMARK    1  A    between atoms: N_1  and  C_9
REMARK    2  A    between atoms: C_10  and  O_11
REMARK    3  A    between atoms: C_12  and  O_15
REMARK    4  A    between atoms: C_13  and  C_16
REMARK    5  A    between atoms: C_16  and  O_17
REMARK    6  A    between atoms: O_17  and  P_18
REMARK    7  A    between atoms: P_18  and  O_20
REMARK    8  A    between atoms: P_18  and  O_21
REMARK    9  A    between atoms: O_21  and  P_22
REMARK   10  A    between atoms: P_22  and  O_24
REMARK   11  A    between atoms: P_22  and  O_25
REMARK                            x       y       z     vdW  Elec       q    Type
REMARK                         _______ _______ _______ _____ _____    ______ ____
ROOT
ATOM      1  C   UNL     1      58.363  18.580  -7.135  0.00  0.00    +0.255 C 
ATOM      2  C   UNL     1      58.424  17.092  -7.521  0.00  0.00    +0.195 C 
ATOM      3  C   UNL     1      57.133  16.522  -6.961  0.00  0.00    +0.178 C 
ATOM      4  C   UNL     1      56.284  17.768  -6.744  0.00  0.00    +0.178 C 
ATOM      5  O   UNL     1      57.154  18.836  -6.449  0.00  0.00    -0.346 OA
ENDROOT
BRANCH   1   6
ATOM      6  N   UNL     1      59.519  18.959  -6.296  0.00  0.00    -0.271 N 
ATOM      7  C   UNL     1      60.759  19.208  -6.838  0.00  0.00    +0.331 A 
ATOM      8  N   UNL     1      61.799  19.574  -6.038  0.00  0.00    -0.275 N 
ATOM      9  C   UNL     1      61.637  19.715  -4.696  0.00  0.00    +0.254 A 
ATOM     10  C   UNL     1      60.391  19.487  -4.123  0.00  0.00    +0.088 A 
ATOM     11  C   UNL     1      59.334  19.112  -4.948  0.00  0.00    +0.098 A 
ATOM     12  O   UNL     1      60.949  19.108  -8.081  0.00  0.00    -0.246 OA
ATOM     13  O   UNL     1      62.611  20.054  -3.973  0.00  0.00    -0.268 OA
ATOM     14  H   UNL     1      62.737  19.755  -6.462  0.00  0.00    +0.173 HD
ENDBRANCH   1   6
BRANCH   2  15
ATOM     15  O   UNL     1      58.529  16.927  -8.917  0.00  0.00    -0.385 OA
ATOM     16  H   UNL     1      59.386  17.333  -9.213  0.00  0.00    +0.210 HD
ENDBRANCH   2  15
BRANCH   3  17
ATOM     17  O   UNL     1      56.501  15.633  -7.847  0.00  0.00    -0.386 OA
ATOM     18  H   UNL     1      56.550  16.053  -8.745  0.00  0.00    +0.210 HD
ENDBRANCH   3  17
BRANCH   4  19
ATOM     19  C   UNL     1      55.278  17.584  -5.606  0.00  0.00    +0.206 C 
BRANCH  19  20
ATOM     20  O   UNL     1      55.124  16.208  -5.346  0.00  0.00    -0.284 OA
BRANCH  20  21
ATOM     21  P   UNL     1      54.197  16.034  -3.927  0.00  0.00    +0.483 P 
ATOM     22  O   UNL     1      52.744  16.267  -4.279  0.00  0.00    -0.227 OA
BRANCH  21  23
ATOM     23  O   UNL     1      54.379  14.459  -3.327  0.00  0.00    -0.302 OA
ATOM     24  H   UNL     1      54.323  13.876  -4.126  0.00  0.00    +0.222 HD
ENDBRANCH  21  23
BRANCH  21  25
ATOM     25  O   UNL     1      54.700  17.196  -2.788  0.00  0.00    -0.186 OA
BRANCH  25  26
ATOM     26  P   UNL     1      56.030  16.553  -1.944  0.00  0.00    +0.481 P 
ATOM     27  O   UNL     1      55.524  15.535  -0.948  0.00  0.00    -0.227 OA
BRANCH  26  28
ATOM     28  O   UNL     1      57.111  15.793  -3.003  0.00  0.00    -0.302 OA
ATOM     29  H   UNL     1      57.969  15.755  -2.507  0.00  0.00    +0.222 HD
ENDBRANCH  26  28
BRANCH  26  30
ATOM     30  O   UNL     1      56.831  17.785  -1.103  0.00  0.00    -0.302 OA
ATOM     31  H   UNL     1      56.473  18.626  -1.486  0.00  0.00    +0.222 HD
ENDBRANCH  26  30
ENDBRANCH  25  26
ENDBRANCH  21  25
ENDBRANCH  20  21
ENDBRANCH  19  20
ENDBRANCH   4  19
TORSDOF 11
ENDMDL
MODEL 13
REMARK VINA RESULT:    -6.612      6.569      8.617
REMARK INTER + INTRA:         -11.219
REMARK INTER:                  -9.799
REMARK INTRA:                  -1.420
REMARK UNBOUND:                -1.322
REMARK  Name = UDP
REMARK  11 active torsions:
REMARK  status: ('A' for Active; 'I' for Inactive)
REMARK    1  A    between atoms: N_1  and  C_9
REMARK    2  A    between atoms: C_10  and  O_11
REMARK    3  A    between atoms: C_12  and  O_15
REMARK    4  A    between atoms: C_13  and  C_16
REMARK    5  A    between atoms: C_16  and  O_17
REMARK    6  A    between atoms: O_17  and  P_18
REMARK    7  A    between atoms: P_18  and  O_20
REMARK    8  A    between atoms: P_18  and  O_21
REMARK    9  A    between atoms: O_21  and  P_22
REMARK   10  A    between atoms: P_22  and  O_24
REMARK   11  A    between atoms: P_22  and  O_25
REMARK                            x       y       z     vdW  Elec       q    Type
REMARK                         _______ _______ _______ _____ _____    ______ ____
ROOT
ATOM      1  C   UNL     1      55.752  24.708  -0.444  0.00  0.00    +0.255 C 
ATOM      2  C   UNL     1      56.333  26.081  -0.065  0.00  0.00    +0.195 C 
ATOM      3  C   UNL     1      56.746  25.909   1.386  0.00  0.00    +0.178 C 
ATOM      4  C   UNL     1      56.799  24.394   1.541  0.00  0.00    +0.178 C 
ATOM      5  O   UNL     1      55.846  23.838   0.666  0.00  0.00    -0.346 OA
ENDROOT
BRANCH   1   6
ATOM      6  N   UNL     1      54.346  24.829  -0.884  0.00  0.00    -0.271 N 
ATOM      7  C   UNL     1      53.984  24.686  -2.203  0.00  0.00    +0.331 A 
ATOM      8  N   UNL     1      52.676  24.784  -2.572  0.00  0.00    -0.275 N 
ATOM      9  C   UNL     1      51.702  25.010  -1.652  0.00  0.00    +0.254 A 
ATOM     10  C   UNL     1      52.037  25.141  -0.308  0.00  0.00    +0.088 A 
ATOM     11  C   UNL     1      53.377  25.040   0.058  0.00  0.00    +0.098 A 
ATOM     12  O   UNL     1      54.853  24.457  -3.088  0.00  0.00    -0.246 OA
ATOM     13  O   UNL     1      50.498  25.098  -2.013  0.00  0.00    -0.268 OA
ATOM     14  H   UNL     1      52.415  24.679  -3.579  0.00  0.00    +0.173 HD
ENDBRANCH   1   6
BRANCH   2  15
ATOM     15  O   UNL     1      57.415  26.429  -0.898  0.00  0.00    -0.385 OA
ATOM     16  H   UNL     1      58.045  26.988  -0.370  0.00  0.00    +0.210 HD
ENDBRANCH   2  15
BRANCH   3  17
ATOM     17  O   UNL     1      57.995  26.487   1.670  0.00  0.00    -0.386 OA
ATOM     18  H   UNL     1      57.918  26.883   2.577  0.00  0.00    +0.210 HD
ENDBRANCH   3  17
BRANCH   4  19
ATOM     19  C   UNL     1      56.510  23.955   2.978  0.00  0.00    +0.206 C 
BRANCH  19  20
ATOM     20  O   UNL     1      55.148  24.178   3.261  0.00  0.00    -0.284 OA
BRANCH  20  21
ATOM     21  P   UNL     1      54.442  22.686   3.686  0.00  0.00    +0.483 P 
ATOM     22  O   UNL     1      52.943  22.807   3.520  0.00  0.00    -0.227 OA
BRANCH  21  23
ATOM     23  O   UNL     1      55.021  21.476   2.650  0.00  0.00    -0.302 OA
ATOM     24  H   UNL     1      55.875  21.832   2.296  0.00  0.00    +0.222 HD
ENDBRANCH  21  23
BRANCH  21  25
ATOM     25  O   UNL     1      54.808  22.340   5.312  0.00  0.00    -0.186 OA
BRANCH  25  26
ATOM     26  P   UNL     1      53.794  21.069   5.813  0.00  0.00    +0.481 P 
ATOM     27  O   UNL     1      53.855  19.967   4.780  0.00  0.00    -0.227 OA
BRANCH  26  28
ATOM     28  O   UNL     1      54.293  20.446   7.308  0.00  0.00    -0.302 OA
ATOM     29  H   UNL     1      54.869  19.672   7.080  0.00  0.00    +0.222 HD
ENDBRANCH  26  28
BRANCH  26  30
ATOM     30  O   UNL     1      52.196  21.616   5.930  0.00  0.00    -0.302 OA
ATOM     31  H   UNL     1      51.732  21.207   5.157  0.00  0.00    +0.222 HD
ENDBRANCH  26  30
ENDBRANCH  25  26
ENDBRANCH  21  25
ENDBRANCH  20  21
ENDBRANCH  19  20
ENDBRANCH   4  19
TORSDOF 11
ENDMDL
MODEL 14
REMARK VINA RESULT:    -6.602      4.638      8.287
REMARK INTER + INTRA:         -11.205
REMARK INTER:                  -9.353
REMARK INTRA:                  -1.851
REMARK UNBOUND:                -1.322
REMARK  Name = UDP
REMARK  11 active torsions:
REMARK  status: ('A' for Active; 'I' for Inactive)
REMARK    1  A    between atoms: N_1  and  C_9
REMARK    2  A    between atoms: C_10  and  O_11
REMARK    3  A    between atoms: C_12  and  O_15
REMARK    4  A    between atoms: C_13  and  C_16
REMARK    5  A    between atoms: C_16  and  O_17
REMARK    6  A    between atoms: O_17  and  P_18
REMARK    7  A    between atoms: P_18  and  O_20
REMARK    8  A    between atoms: P_18  and  O_21
REMARK    9  A    between atoms: O_21  and  P_22
REMARK   10  A    between atoms: P_22  and  O_24
REMARK   11  A    between atoms: P_22  and  O_25
REMARK                            x       y       z     vdW  Elec       q    Type
REMARK                         _______ _______ _______ _____ _____    ______ ____
ROOT
ATOM      1  C   UNL     1      55.580  24.870  -1.000  0.00  0.00    +0.255 C 
ATOM      2  C   UNL     1      56.667  25.352  -0.024  0.00  0.00    +0.195 C 
ATOM      3  C   UNL     1      57.815  24.385  -0.257  0.00  0.00    +0.178 C 
ATOM      4  C   UNL     1      57.468  23.777  -1.610  0.00  0.00    +0.178 C 
ATOM      5  O   UNL     1      56.065  23.761  -1.729  0.00  0.00    -0.346 OA
ENDROOT
BRANCH   1   6
ATOM      6  N   UNL     1      54.341  24.508  -0.279  0.00  0.00    -0.271 N 
ATOM      7  C   UNL     1      53.229  25.318  -0.296  0.00  0.00    +0.331 A 
ATOM      8  N   UNL     1      52.097  24.945   0.364  0.00  0.00    -0.275 N 
ATOM      9  C   UNL     1      52.033  23.767   1.037  0.00  0.00    +0.254 A 
ATOM     10  C   UNL     1      53.135  22.920   1.057  0.00  0.00    +0.088 A 
ATOM     11  C   UNL     1      54.289  23.311   0.381  0.00  0.00    +0.098 A 
ATOM     12  O   UNL     1      53.239  26.412  -0.925  0.00  0.00    -0.246 OA
ATOM     13  O   UNL     1      50.976  23.440   1.641  0.00  0.00    -0.268 OA
ATOM     14  H   UNL     1      51.261  25.573   0.347  0.00  0.00    +0.173 HD
ENDBRANCH   1   6
BRANCH   2  15
ATOM     15  O   UNL     1      57.028  26.691  -0.276  0.00  0.00    -0.385 OA
ATOM     16  H   UNL     1      57.770  26.932   0.338  0.00  0.00    +0.210 HD
ENDBRANCH   2  15
BRANCH   3  17
ATOM     17  O   UNL     1      59.065  25.024  -0.299  0.00  0.00    -0.386 OA
ATOM     18  H   UNL     1      59.450  24.943   0.613  0.00  0.00    +0.210 HD
ENDBRANCH   3  17
BRANCH   4  19
ATOM     19  C   UNL     1      58.022  22.357  -1.758  0.00  0.00    +0.206 C 
BRANCH  19  20
ATOM     20  O   UNL     1      58.560  21.944  -0.524  0.00  0.00    -0.284 OA
BRANCH  20  21
ATOM     21  P   UNL     1      57.962  20.386  -0.178  0.00  0.00    +0.483 P 
ATOM     22  O   UNL     1      58.274  19.486  -1.353  0.00  0.00    -0.227 OA
BRANCH  21  23
ATOM     23  O   UNL     1      58.734  19.783   1.206  0.00  0.00    -0.302 OA
ATOM     24  H   UNL     1      58.874  20.576   1.784  0.00  0.00    +0.222 HD
ENDBRANCH  21  23
BRANCH  21  25
ATOM     25  O   UNL     1      56.275  20.473   0.039  0.00  0.00    -0.186 OA
BRANCH  25  26
ATOM     26  P   UNL     1      55.807  19.151   1.003  0.00  0.00    +0.481 P 
ATOM     27  O   UNL     1      54.313  18.964   0.872  0.00  0.00    -0.227 OA
BRANCH  26  28
ATOM     28  O   UNL     1      56.583  17.731   0.505  0.00  0.00    -0.302 OA
ATOM     29  H   UNL     1      57.543  17.973   0.449  0.00  0.00    +0.222 HD
ENDBRANCH  26  28
BRANCH  26  30
ATOM     30  O   UNL     1      56.175  19.461   2.626  0.00  0.00    -0.302 OA
ATOM     31  H   UNL     1      56.932  18.857   2.833  0.00  0.00    +0.222 HD
ENDBRANCH  26  30
ENDBRANCH  25  26
ENDBRANCH  21  25
ENDBRANCH  20  21
ENDBRANCH  19  20
ENDBRANCH   4  19
TORSDOF 11
ENDMDL
MODEL 15
REMARK VINA RESULT:    -6.597      5.934      8.199
REMARK INTER + INTRA:         -11.197
REMARK INTER:                  -9.160
REMARK INTRA:                  -2.037
REMARK UNBOUND:                -1.322
REMARK  Name = UDP
REMARK  11 active torsions:
REMARK  status: ('A' for Active; 'I' for Inactive)
REMARK    1  A    between atoms: N_1  and  C_9
REMARK    2  A    between atoms: C_10  and  O_11
REMARK    3  A    between atoms: C_12  and  O_15
REMARK    4  A    between atoms: C_13  and  C_16
REMARK    5  A    between atoms: C_16  and  O_17
REMARK    6  A    between atoms: O_17  and  P_18
REMARK    7  A    between atoms: P_18  and  O_20
REMARK    8  A    between atoms: P_18  and  O_21
REMARK    9  A    between atoms: O_21  and  P_22
REMARK   10  A    between atoms: P_22  and  O_24
REMARK   11  A    between atoms: P_22  and  O_25
REMARK                            x       y       z     vdW  Elec       q    Type
REMARK                         _______ _______ _______ _____ _____    ______ ____
ROOT
ATOM      1  C   UNL     1      55.772  14.823  -2.769  0.00  0.00    +0.255 C 
ATOM      2  C   UNL     1      54.843  15.933  -3.292  0.00  0.00    +0.195 C 
ATOM      3  C   UNL     1      55.786  17.089  -3.574  0.00  0.00    +0.178 C 
ATOM      4  C   UNL     1      57.145  16.404  -3.637  0.00  0.00    +0.178 C 
ATOM      5  O   UNL     1      57.106  15.290  -2.776  0.00  0.00    -0.346 OA
ENDROOT
BRANCH   1   6
ATOM      6  N   UNL     1      55.383  14.401  -1.408  0.00  0.00    -0.271 N 
ATOM      7  C   UNL     1      55.614  13.124  -0.950  0.00  0.00    +0.331 A 
ATOM      8  N   UNL     1      55.260  12.774   0.318  0.00  0.00    -0.275 N 
ATOM      9  C   UNL     1      54.687  13.673   1.161  0.00  0.00    +0.254 A 
ATOM     10  C   UNL     1      54.458  14.975   0.731  0.00  0.00    +0.088 A 
ATOM     11  C   UNL     1      54.822  15.323  -0.567  0.00  0.00    +0.098 A 
ATOM     12  O   UNL     1      56.161  12.264  -1.693  0.00  0.00    -0.246 OA
ATOM     13  O   UNL     1      54.366  13.329   2.330  0.00  0.00    -0.268 OA
ATOM     14  H   UNL     1      55.436  11.799   0.651  0.00  0.00    +0.173 HD
ENDBRANCH   1   6
BRANCH   2  15
ATOM     15  O   UNL     1      54.139  15.516  -4.440  0.00  0.00    -0.385 OA
ATOM     16  H   UNL     1      54.309  16.176  -5.163  0.00  0.00    +0.210 HD
ENDBRANCH   2  15
BRANCH   3  17
ATOM     17  O   UNL     1      55.498  17.745  -4.782  0.00  0.00    -0.386 OA
ATOM     18  H   UNL     1      55.248  17.036  -5.431  0.00  0.00    +0.210 HD
ENDBRANCH   3  17
BRANCH   4  19
ATOM     19  C   UNL     1      58.280  17.344  -3.225  0.00  0.00    +0.206 C 
BRANCH  19  20
ATOM     20  O   UNL     1      58.412  18.357  -4.195  0.00  0.00    -0.284 OA
BRANCH  20  21
ATOM     21  P   UNL     1      59.875  18.105  -5.032  0.00  0.00    +0.483 P 
ATOM     22  O   UNL     1      60.997  18.712  -4.219  0.00  0.00    -0.227 OA
BRANCH  21  23
ATOM     23  O   UNL     1      60.147  16.440  -5.199  0.00  0.00    -0.302 OA
ATOM     24  H   UNL     1      60.154  16.090  -4.273  0.00  0.00    +0.222 HD
ENDBRANCH  21  23
BRANCH  21  25
ATOM     25  O   UNL     1      59.789  18.876  -6.548  0.00  0.00    -0.186 OA
BRANCH  25  26
ATOM     26  P   UNL     1      58.209  18.671  -7.145  0.00  0.00    +0.481 P 
ATOM     27  O   UNL     1      58.207  18.987  -8.623  0.00  0.00    -0.227 OA
BRANCH  26  28
ATOM     28  O   UNL     1      57.677  17.078  -6.924  0.00  0.00    -0.302 OA
ATOM     29  H   UNL     1      56.906  17.152  -6.305  0.00  0.00    +0.222 HD
ENDBRANCH  26  28
BRANCH  26  30
ATOM     30  O   UNL     1      57.152  19.736  -6.361  0.00  0.00    -0.302 OA
ATOM     31  H   UNL     1      57.201  19.482  -5.405  0.00  0.00    +0.222 HD
ENDBRANCH  26  30
ENDBRANCH  25  26
ENDBRANCH  21  25
ENDBRANCH  20  21
ENDBRANCH  19  20
ENDBRANCH   4  19
TORSDOF 11
ENDMDL
MODEL 16
REMARK VINA RESULT:    -6.514      1.739      2.581
REMARK INTER + INTRA:         -11.073
REMARK INTER:                  -9.122
REMARK INTRA:                  -1.952
REMARK UNBOUND:                -1.322
REMARK  Name = UDP
REMARK  11 active torsions:
REMARK  status: ('A' for Active; 'I' for Inactive)
REMARK    1  A    between atoms: N_1  and  C_9
REMARK    2  A    between atoms: C_10  and  O_11
REMARK    3  A    between atoms: C_12  and  O_15
REMARK    4  A    between atoms: C_13  and  C_16
REMARK    5  A    between atoms: C_16  and  O_17
REMARK    6  A    between atoms: O_17  and  P_18
REMARK    7  A    between atoms: P_18  and  O_20
REMARK    8  A    between atoms: P_18  and  O_21
REMARK    9  A    between atoms: O_21  and  P_22
REMARK   10  A    between atoms: P_22  and  O_24
REMARK   11  A    between atoms: P_22  and  O_25
REMARK                            x       y       z     vdW  Elec       q    Type
REMARK                         _______ _______ _______ _____ _____    ______ ____
ROOT
ATOM      1  C   UNL     1      57.317  19.804  -1.803  0.00  0.00    +0.255 C 
ATOM      2  C   UNL     1      57.817  20.356  -0.457  0.00  0.00    +0.195 C 
ATOM      3  C   UNL     1      57.195  21.740  -0.382  0.00  0.00    +0.178 C 
ATOM      4  C   UNL     1      56.074  21.658  -1.411  0.00  0.00    +0.178 C 
ATOM      5  O   UNL     1      56.480  20.761  -2.419  0.00  0.00    -0.346 OA
ENDROOT
BRANCH   1   6
ATOM      6  N   UNL     1      58.448  19.464  -2.691  0.00  0.00    -0.271 N 
ATOM      7  C   UNL     1      58.787  18.160  -2.969  0.00  0.00    +0.331 A 
ATOM      8  N   UNL     1      59.824  17.882  -3.807  0.00  0.00    -0.275 N 
ATOM      9  C   UNL     1      60.536  18.877  -4.397  0.00  0.00    +0.254 A 
ATOM     10  C   UNL     1      60.205  20.205  -4.149  0.00  0.00    +0.088 A 
ATOM     11  C   UNL     1      59.145  20.479  -3.289  0.00  0.00    +0.098 A 
ATOM     12  O   UNL     1      58.140  17.205  -2.457  0.00  0.00    -0.246 OA
ATOM     13  O   UNL     1      61.492  18.600  -5.169  0.00  0.00    -0.268 OA
ATOM     14  H   UNL     1      60.074  16.886  -4.006  0.00  0.00    +0.173 HD
ENDBRANCH   1   6
BRANCH   2  15
ATOM     15  O   UNL     1      57.426  19.529   0.616  0.00  0.00    -0.385 OA
ATOM     16  H   UNL     1      58.063  19.672   1.364  0.00  0.00    +0.210 HD
ENDBRANCH   2  15
BRANCH   3  17
ATOM     17  O   UNL     1      56.685  22.040   0.892  0.00  0.00    -0.386 OA
ATOM     18  H   UNL     1      57.439  21.926   1.527  0.00  0.00    +0.210 HD
ENDBRANCH   3  17
BRANCH   4  19
ATOM     19  C   UNL     1      55.758  23.025  -2.023  0.00  0.00    +0.206 C 
BRANCH  19  20
ATOM     20  O   UNL     1      56.142  24.033  -1.118  0.00  0.00    -0.284 OA
BRANCH  20  21
ATOM     21  P   UNL     1      54.748  24.905  -0.670  0.00  0.00    +0.483 P 
ATOM     22  O   UNL     1      54.612  26.092  -1.597  0.00  0.00    -0.227 OA
BRANCH  21  23
ATOM     23  O   UNL     1      53.386  23.909  -0.837  0.00  0.00    -0.302 OA
ATOM     24  H   UNL     1      52.634  24.445  -0.477  0.00  0.00    +0.222 HD
ENDBRANCH  21  23
BRANCH  21  25
ATOM     25  O   UNL     1      54.925  25.452   0.933  0.00  0.00    -0.186 OA
BRANCH  25  26
ATOM     26  P   UNL     1      56.539  25.951   1.136  0.00  0.00    +0.481 P 
ATOM     27  O   UNL     1      56.586  27.005   2.217  0.00  0.00    -0.227 OA
BRANCH  26  28
ATOM     28  O   UNL     1      57.524  24.651   1.594  0.00  0.00    -0.302 OA
ATOM     29  H   UNL     1      57.645  24.758   2.572  0.00  0.00    +0.222 HD
ENDBRANCH  26  28
BRANCH  26  30
ATOM     30  O   UNL     1      57.120  26.624  -0.305  0.00  0.00    -0.302 OA
ATOM     31  H   UNL     1      57.633  27.422  -0.022  0.00  0.00    +0.222 HD
ENDBRANCH  26  30
ENDBRANCH  25  26
ENDBRANCH  21  25
ENDBRANCH  20  21
ENDBRANCH  19  20
ENDBRANCH   4  19
TORSDOF 11
ENDMDL
MODEL 17
REMARK VINA RESULT:    -6.475      2.832      4.627
REMARK INTER + INTRA:         -11.014
REMARK INTER:                  -9.074
REMARK INTRA:                  -1.940
REMARK UNBOUND:                -1.322
REMARK  Name = UDP
REMARK  11 active torsions:
REMARK  status: ('A' for Active; 'I' for Inactive)
REMARK    1  A    between atoms: N_1  and  C_9
REMARK    2  A    between atoms: C_10  and  O_11
REMARK    3  A    between atoms: C_12  and  O_15
REMARK    4  A    between atoms: C_13  and  C_16
REMARK    5  A    between atoms: C_16  and  O_17
REMARK    6  A    between atoms: O_17  and  P_18
REMARK    7  A    between atoms: P_18  and  O_20
REMARK    8  A    between atoms: P_18  and  O_21
REMARK    9  A    between atoms: O_21  and  P_22
REMARK   10  A    between atoms: P_22  and  O_24
REMARK   11  A    between atoms: P_22  and  O_25
REMARK                            x       y       z     vdW  Elec       q    Type
REMARK                         _______ _______ _______ _____ _____    ______ ____
ROOT
ATOM      1  C   UNL     1      58.609  19.219  -6.554  0.00  0.00    +0.255 C 
ATOM      2  C   UNL     1      57.751  18.362  -7.502  0.00  0.00    +0.195 C 
ATOM      3  C   UNL     1      56.412  18.272  -6.793  0.00  0.00    +0.178 C 
ATOM      4  C   UNL     1      56.483  19.423  -5.797  0.00  0.00    +0.178 C 
ATOM      5  O   UNL     1      57.832  19.597  -5.436  0.00  0.00    -0.346 OA
ENDROOT
BRANCH   1   6
ATOM      6  N   UNL     1      59.814  18.485  -6.118  0.00  0.00    -0.271 N 
ATOM      7  C   UNL     1      61.066  18.793  -6.600  0.00  0.00    +0.331 A 
ATOM      8  N   UNL     1      62.159  18.108  -6.163  0.00  0.00    -0.275 N 
ATOM      9  C   UNL     1      62.045  17.121  -5.236  0.00  0.00    +0.254 A 
ATOM     10  C   UNL     1      60.795  16.801  -4.717  0.00  0.00    +0.088 A 
ATOM     11  C   UNL     1      59.683  17.505  -5.172  0.00  0.00    +0.098 A 
ATOM     12  O   UNL     1      61.219  19.714  -7.448  0.00  0.00    -0.246 OA
ATOM     13  O   UNL     1      63.068  16.500  -4.844  0.00  0.00    -0.268 OA
ATOM     14  H   UNL     1      63.104  18.348  -6.542  0.00  0.00    +0.173 HD
ENDBRANCH   1   6
BRANCH   2  15
ATOM     15  O   UNL     1      57.649  18.953  -8.778  0.00  0.00    -0.385 OA
ATOM     16  H   UNL     1      58.002  18.308  -9.446  0.00  0.00    +0.210 HD
ENDBRANCH   2  15
BRANCH   3  17
ATOM     17  O   UNL     1      55.322  18.429  -7.664  0.00  0.00    -0.386 OA
ATOM     18  H   UNL     1      55.326  17.636  -8.262  0.00  0.00    +0.210 HD
ENDBRANCH   3  17
BRANCH   4  19
ATOM     19  C   UNL     1      55.637  19.154  -4.550  0.00  0.00    +0.206 C 
BRANCH  19  20
ATOM     20  O   UNL     1      55.627  20.309  -3.744  0.00  0.00    -0.284 OA
BRANCH  20  21
ATOM     21  P   UNL     1      56.217  19.888  -2.202  0.00  0.00    +0.483 P 
ATOM     22  O   UNL     1      55.197  18.993  -1.532  0.00  0.00    -0.227 OA
BRANCH  21  23
ATOM     23  O   UNL     1      57.675  19.041  -2.371  0.00  0.00    -0.302 OA
ATOM     24  H   UNL     1      57.565  18.231  -1.811  0.00  0.00    +0.222 HD
ENDBRANCH  21  23
BRANCH  21  25
ATOM     25  O   UNL     1      56.424  21.305  -1.279  0.00  0.00    -0.186 OA
BRANCH  25  26
ATOM     26  P   UNL     1      57.963  21.936  -1.637  0.00  0.00    +0.481 P 
ATOM     27  O   UNL     1      57.924  23.436  -1.451  0.00  0.00    -0.227 OA
BRANCH  26  28
ATOM     28  O   UNL     1      59.140  21.286  -0.608  0.00  0.00    -0.302 OA
ATOM     29  H   UNL     1      59.964  21.246  -1.158  0.00  0.00    +0.222 HD
ENDBRANCH  26  28
BRANCH  26  30
ATOM     30  O   UNL     1      58.366  21.599  -3.246  0.00  0.00    -0.302 OA
ATOM     31  H   UNL     1      57.911  20.743  -3.446  0.00  0.00    +0.222 HD
ENDBRANCH  26  30
ENDBRANCH  25  26
ENDBRANCH  21  25
ENDBRANCH  20  21
ENDBRANCH  19  20
ENDBRANCH   4  19
TORSDOF 11
ENDMDL
MODEL 18
REMARK VINA RESULT:    -6.446      3.886      8.393
REMARK INTER + INTRA:         -10.972
REMARK INTER:                  -9.552
REMARK INTRA:                  -1.420
REMARK UNBOUND:                -1.322
REMARK  Name = UDP
REMARK  11 active torsions:
REMARK  status: ('A' for Active; 'I' for Inactive)
REMARK    1  A    between atoms: N_1  and  C_9
REMARK    2  A    between atoms: C_10  and  O_11
REMARK    3  A    between atoms: C_12  and  O_15
REMARK    4  A    between atoms: C_13  and  C_16
REMARK    5  A    between atoms: C_16  and  O_17
REMARK    6  A    between atoms: O_17  and  P_18
REMARK    7  A    between atoms: P_18  and  O_20
REMARK    8  A    between atoms: P_18  and  O_21
REMARK    9  A    between atoms: O_21  and  P_22
REMARK   10  A    between atoms: P_22  and  O_24
REMARK   11  A    between atoms: P_22  and  O_25
REMARK                            x       y       z     vdW  Elec       q    Type
REMARK                         _______ _______ _______ _____ _____    ______ ____
ROOT
ATOM      1  C   UNL     1      57.973  21.933  -0.289  0.00  0.00    +0.255 C 
ATOM      2  C   UNL     1      57.242  20.586  -0.148  0.00  0.00    +0.195 C 
ATOM      3  C   UNL     1      57.461  19.914  -1.491  0.00  0.00    +0.178 C 
ATOM      4  C   UNL     1      58.638  20.693  -2.066  0.00  0.00    +0.178 C 
ATOM      5  O   UNL     1      58.567  22.009  -1.569  0.00  0.00    -0.346 OA
ENDROOT
BRANCH   1   6
ATOM      6  N   UNL     1      57.046  23.065  -0.084  0.00  0.00    -0.271 N 
ATOM      7  C   UNL     1      57.498  24.357   0.052  0.00  0.00    +0.331 A 
ATOM      8  N   UNL     1      56.614  25.380   0.220  0.00  0.00    -0.275 N 
ATOM      9  C   UNL     1      55.274  25.154   0.243  0.00  0.00    +0.254 A 
ATOM     10  C   UNL     1      54.788  23.861   0.090  0.00  0.00    +0.088 A 
ATOM     11  C   UNL     1      55.699  22.821  -0.080  0.00  0.00    +0.098 A 
ATOM     12  O   UNL     1      58.732  24.614   0.018  0.00  0.00    -0.246 OA
ATOM     13  O   UNL     1      54.474  26.114   0.400  0.00  0.00    -0.268 OA
ATOM     14  H   UNL     1      56.971  26.357   0.328  0.00  0.00    +0.173 HD
ENDBRANCH   1   6
BRANCH   2  15
ATOM     15  O   UNL     1      57.758  19.831   0.926  0.00  0.00    -0.385 OA
ATOM     16  H   UNL     1      57.333  20.154   1.763  0.00  0.00    +0.210 HD
ENDBRANCH   2  15
BRANCH   3  17
ATOM     17  O   UNL     1      57.773  18.549  -1.374  0.00  0.00    -0.386 OA
ATOM     18  H   UNL     1      56.920  18.086  -1.165  0.00  0.00    +0.210 HD
ENDBRANCH   3  17
BRANCH   4  19
ATOM     19  C   UNL     1      58.621  20.710  -3.596  0.00  0.00    +0.206 C 
BRANCH  19  20
ATOM     20  O   UNL     1      57.451  20.069  -4.050  0.00  0.00    -0.284 OA
BRANCH  20  21
ATOM     21  P   UNL     1      57.910  18.781  -5.066  0.00  0.00    +0.483 P 
ATOM     22  O   UNL     1      58.765  19.339  -6.183  0.00  0.00    -0.227 OA
BRANCH  21  23
ATOM     23  O   UNL     1      58.818  17.659  -4.176  0.00  0.00    -0.302 OA
ATOM     24  H   UNL     1      58.256  17.446  -3.389  0.00  0.00    +0.222 HD
ENDBRANCH  21  23
BRANCH  21  25
ATOM     25  O   UNL     1      56.511  18.066  -5.724  0.00  0.00    -0.186 OA
BRANCH  25  26
ATOM     26  P   UNL     1      57.004  16.995  -6.951  0.00  0.00    +0.481 P 
ATOM     27  O   UNL     1      58.094  16.103  -6.403  0.00  0.00    -0.227 OA
BRANCH  26  28
ATOM     28  O   UNL     1      55.713  16.027  -7.468  0.00  0.00    -0.302 OA
ATOM     29  H   UNL     1      55.175  16.616  -8.056  0.00  0.00    +0.222 HD
ENDBRANCH  26  28
BRANCH  26  30
ATOM     30  O   UNL     1      57.622  17.866  -8.264  0.00  0.00    -0.302 OA
ATOM     31  H   UNL     1      58.212  18.549  -7.859  0.00  0.00    +0.222 HD
ENDBRANCH  26  30
ENDBRANCH  25  26
ENDBRANCH  21  25
ENDBRANCH  20  21
ENDBRANCH  19  20
ENDBRANCH   4  19
TORSDOF 11
ENDMDL
MODEL 19
REMARK VINA RESULT:    -6.444      5.922      7.898
REMARK INTER + INTRA:         -10.969
REMARK INTER:                  -9.278
REMARK INTRA:                  -1.690
REMARK UNBOUND:                -1.322
REMARK  Name = UDP
REMARK  11 active torsions:
REMARK  status: ('A' for Active; 'I' for Inactive)
REMARK    1  A    between atoms: N_1  and  C_9
REMARK    2  A    between atoms: C_10  and  O_11
REMARK    3  A    between atoms: C_12  and  O_15
REMARK    4  A    between atoms: C_13  and  C_16
REMARK    5  A    between atoms: C_16  and  O_17
REMARK    6  A    between atoms: O_17  and  P_18
REMARK    7  A    between atoms: P_18  and  O_20
REMARK    8  A    between atoms: P_18  and  O_21
REMARK    9  A    between atoms: O_21  and  P_22
REMARK   10  A    between atoms: P_22  and  O_24
REMARK   11  A    between atoms: P_22  and  O_25
REMARK                            x       y       z     vdW  Elec       q    Type
REMARK                         _______ _______ _______ _____ _____    ______ ____
ROOT
ATOM      1  C   UNL     1      56.662  23.820   0.797  0.00  0.00    +0.255 C 
ATOM      2  C   UNL     1      55.586  24.411   1.725  0.00  0.00    +0.195 C 
ATOM      3  C   UNL     1      55.017  23.197   2.436  0.00  0.00    +0.178 C 
ATOM      4  C   UNL     1      56.095  22.143   2.212  0.00  0.00    +0.178 C 
ATOM      5  O   UNL     1      56.717  22.420   0.980  0.00  0.00    -0.346 OA
ENDROOT
BRANCH   1   6
ATOM      6  N   UNL     1      56.381  24.143  -0.617  0.00  0.00    -0.271 N 
ATOM      7  C   UNL     1      56.898  25.266  -1.222  0.00  0.00    +0.331 A 
ATOM      8  N   UNL     1      56.635  25.524  -2.533  0.00  0.00    -0.275 N 
ATOM      9  C   UNL     1      55.872  24.679  -3.275  0.00  0.00    +0.254 A 
ATOM     10  C   UNL     1      55.351  23.528  -2.696  0.00  0.00    +0.088 A 
ATOM     11  C   UNL     1      55.625  23.273  -1.354  0.00  0.00    +0.098 A 
ATOM     12  O   UNL     1      57.626  26.067  -0.574  0.00  0.00    -0.246 OA
ATOM     13  O   UNL     1      55.640  24.936  -4.487  0.00  0.00    -0.268 OA
ATOM     14  H   UNL     1      57.030  26.383  -2.978  0.00  0.00    +0.173 HD
ENDBRANCH   1   6
BRANCH   2  15
ATOM     15  O   UNL     1      56.138  25.353   2.617  0.00  0.00    -0.385 OA
ATOM     16  H   UNL     1      55.391  25.860   3.031  0.00  0.00    +0.210 HD
ENDBRANCH   2  15
BRANCH   3  17
ATOM     17  O   UNL     1      54.809  23.417   3.808  0.00  0.00    -0.386 OA
ATOM     18  H   UNL     1      53.827  23.379   3.950  0.00  0.00    +0.210 HD
ENDBRANCH   3  17
BRANCH   4  19
ATOM     19  C   UNL     1      55.516  20.726   2.200  0.00  0.00    +0.206 C 
BRANCH  19  20
ATOM     20  O   UNL     1      54.349  20.700   2.988  0.00  0.00    -0.284 OA
BRANCH  20  21
ATOM     21  P   UNL     1      54.705  19.883   4.440  0.00  0.00    +0.483 P 
ATOM     22  O   UNL     1      53.460  19.878   5.299  0.00  0.00    -0.227 OA
BRANCH  21  23
ATOM     23  O   UNL     1      55.148  18.284   4.091  0.00  0.00    -0.302 OA
ATOM     24  H   UNL     1      54.527  18.000   3.373  0.00  0.00    +0.222 HD
ENDBRANCH  21  23
BRANCH  21  25
ATOM     25  O   UNL     1      55.953  20.710   5.252  0.00  0.00    -0.186 OA
BRANCH  25  26
ATOM     26  P   UNL     1      55.347  21.212   6.761  0.00  0.00    +0.481 P 
ATOM     27  O   UNL     1      56.460  21.890   7.527  0.00  0.00    -0.227 OA
BRANCH  26  28
ATOM     28  O   UNL     1      54.068  22.305   6.569  0.00  0.00    -0.302 OA
ATOM     29  H   UNL     1      54.352  23.117   7.062  0.00  0.00    +0.222 HD
ENDBRANCH  26  28
BRANCH  26  30
ATOM     30  O   UNL     1      54.819  19.869   7.647  0.00  0.00    -0.302 OA
ATOM     31  H   UNL     1      55.589  19.625   8.219  0.00  0.00    +0.222 HD
ENDBRANCH  26  30
ENDBRANCH  25  26
ENDBRANCH  21  25
ENDBRANCH  20  21
ENDBRANCH  19  20
ENDBRANCH   4  19
TORSDOF 11
ENDMDL
MODEL 20
REMARK VINA RESULT:    -6.404      5.292      7.153
REMARK INTER + INTRA:         -10.909
REMARK INTER:                  -8.937
REMARK INTRA:                  -1.972
REMARK UNBOUND:                -1.322
REMARK  Name = UDP
REMARK  11 active torsions:
REMARK  status: ('A' for Active; 'I' for Inactive)
REMARK    1  A    between atoms: N_1  and  C_9
REMARK    2  A    between atoms: C_10  and  O_11
REMARK    3  A    between atoms: C_12  and  O_15
REMARK    4  A    between atoms: C_13  and  C_16
REMARK    5  A    between atoms: C_16  and  O_17
REMARK    6  A    between atoms: O_17  and  P_18
REMARK    7  A    between atoms: P_18  and  O_20
REMARK    8  A    between atoms: P_18  and  O_21
REMARK    9  A    between atoms: O_21  and  P_22
REMARK   10  A    between atoms: P_22  and  O_24
REMARK   11  A    between atoms: P_22  and  O_25
REMARK                            x       y       z     vdW  Elec       q    Type
REMARK                         _______ _______ _______ _____ _____    ______ ____
ROOT
ATOM      1  C   UNL     1      57.261  17.800  -5.683  0.00  0.00    +0.255 C 
ATOM      2  C   UNL     1      56.565  16.428  -5.727  0.00  0.00    +0.195 C 
ATOM      3  C   UNL     1      55.889  16.324  -4.372  0.00  0.00    +0.178 C 
ATOM      4  C   UNL     1      55.865  17.773  -3.899  0.00  0.00    +0.178 C 
ATOM      5  O   UNL     1      56.989  18.422  -4.444  0.00  0.00    -0.346 OA
ENDROOT
BRANCH   1   6
ATOM      6  N   UNL     1      58.719  17.663  -5.881  0.00  0.00    -0.271 N 
ATOM      7  C   UNL     1      59.336  18.072  -7.040  0.00  0.00    +0.331 A 
ATOM      8  N   UNL     1      60.686  17.949  -7.181  0.00  0.00    -0.275 N 
ATOM      9  C   UNL     1      61.452  17.436  -6.184  0.00  0.00    +0.254 A 
ATOM     10  C   UNL     1      60.858  17.031  -4.993  0.00  0.00    +0.088 A 
ATOM     11  C   UNL     1      59.478  17.159  -4.859  0.00  0.00    +0.098 A 
ATOM     12  O   UNL     1      58.665  18.571  -7.984  0.00  0.00    -0.246 OA
ATOM     13  O   UNL     1      62.698  17.330  -6.334  0.00  0.00    -0.268 OA
ATOM     14  H   UNL     1      61.141  18.258  -8.070  0.00  0.00    +0.173 HD
ENDBRANCH   1   6
BRANCH   2  15
ATOM     15  O   UNL     1      55.650  16.350  -6.796  0.00  0.00    -0.385 OA
ATOM     16  H   UNL     1      55.821  17.115  -7.406  0.00  0.00    +0.210 HD
ENDBRANCH   2  15
BRANCH   3  17
ATOM     17  O   UNL     1      54.587  15.802  -4.451  0.00  0.00    -0.386 OA
ATOM     18  H   UNL     1      54.172  16.209  -5.256  0.00  0.00    +0.210 HD
ENDBRANCH   3  17
BRANCH   4  19
ATOM     19  C   UNL     1      55.890  17.876  -2.372  0.00  0.00    +0.206 C 
BRANCH  19  20
ATOM     20  O   UNL     1      56.266  16.631  -1.833  0.00  0.00    -0.284 OA
BRANCH  20  21
ATOM     21  P   UNL     1      55.073  16.153  -0.714  0.00  0.00    +0.483 P 
ATOM     22  O   UNL     1      55.735  15.311   0.355  0.00  0.00    -0.227 OA
BRANCH  21  23
ATOM     23  O   UNL     1      54.393  17.530   0.004  0.00  0.00    -0.302 OA
ATOM     24  H   UNL     1      53.417  17.359   0.005  0.00  0.00    +0.222 HD
ENDBRANCH  21  23
BRANCH  21  25
ATOM     25  O   UNL     1      53.894  15.225  -1.520  0.00  0.00    -0.186 OA
BRANCH  25  26
ATOM     26  P   UNL     1      54.528  13.662  -1.745  0.00  0.00    +0.481 P 
ATOM     27  O   UNL     1      53.881  13.051  -2.967  0.00  0.00    -0.227 OA
BRANCH  26  28
ATOM     28  O   UNL     1      56.205  13.715  -1.981  0.00  0.00    -0.302 OA
ATOM     29  H   UNL     1      56.360  14.534  -2.518  0.00  0.00    +0.222 HD
ENDBRANCH  26  28
BRANCH  26  30
ATOM     30  O   UNL     1      54.174  12.696  -0.401  0.00  0.00    -0.302 OA
ATOM     31  H   UNL     1      53.289  13.012  -0.089  0.00  0.00    +0.222 HD
ENDBRANCH  26  30
ENDBRANCH  25  26
ENDBRANCH  21  25
ENDBRANCH  20  21
ENDBRANCH  19  20
ENDBRANCH   4  19
TORSDOF 11
ENDMDL
