MODEL 1
REMARK VINA RESULT:    -4.772      0.000      0.000
REMARK INTER + INTRA:          -5.330
REMARK INTER:                  -5.330
REMARK INTRA:                   0.000
REMARK UNBOUND:                 0.000
REMARK  Name = RIP
REMARK  4 active torsions:
REMARK  status: ('A' for Active; 'I' for Inactive)
REMARK    1  A    between atoms: C_1  and  O_6
REMARK    2  A    between atoms: C_2  and  O_7
REMARK    3  A    between atoms: C_3  and  O_8
REMARK    4  A    between atoms: C_4  and  O_9
REMARK                            x       y       z     vdW  Elec       q    Type
REMARK                         _______ _______ _______ _____ _____    ______ ____
ROOT
ATOM      1  C   UNL     1      63.467  27.232   6.351  0.00  0.00    +0.279 C 
ATOM      2  C   UNL     1      62.752  26.010   5.700  0.00  0.00    +0.201 C 
ATOM      3  C   UNL     1      61.224  26.200   5.666  0.00  0.00    +0.178 C 
ATOM      4  C   UNL     1      60.763  26.810   6.996  0.00  0.00    +0.171 C 
ATOM      5  C   UNL     1      61.506  28.144   7.274  0.00  0.00    +0.197 C 
ATOM      6  O   UNL     1      62.614  28.364   6.413  0.00  0.00    -0.346 OA
ENDROOT
BRANCH   1   7
ATOM      7  O   UNL     1      63.947  26.910   7.634  0.00  0.00    -0.365 OA
ATOM      8  H   UNL     1      64.214  27.764   8.063  0.00  0.00    +0.213 HD
ENDBRANCH   1   7
BRANCH   2   9
ATOM      9  O   UNL     1      63.224  25.800   4.393  0.00  0.00    -0.384 OA
ATOM     10  H   UNL     1      63.523  24.854   4.345  0.00  0.00    +0.210 HD
ENDBRANCH   2   9
BRANCH   3  11
ATOM     11  O   UNL     1      60.868  27.040   4.594  0.00  0.00    -0.386 OA
ATOM     12  H   UNL     1      60.268  26.516   4.003  0.00  0.00    +0.210 HD
ENDBRANCH   3  11
BRANCH   4  13
ATOM     13  O   UNL     1      59.373  27.011   6.974  0.00  0.00    -0.387 OA
ATOM     14  H   UNL     1      59.180  27.740   7.620  0.00  0.00    +0.210 HD
ENDBRANCH   4  13
TORSDOF 4
ENDMDL
MODEL 2
REMARK VINA RESULT:    -4.540      2.298      4.311
REMARK INTER + INTRA:          -5.071
REMARK INTER:                  -5.071
REMARK INTRA:                   0.000
REMARK UNBOUND:                 0.000
REMARK  Name = RIP
REMARK  4 active torsions:
REMARK  status: ('A' for Active; 'I' for Inactive)
REMARK    1  A    between atoms: C_1  and  O_6
REMARK    2  A    between atoms: C_2  and  O_7
REMARK    3  A    between atoms: C_3  and  O_8
REMARK    4  A    between atoms: C_4  and  O_9
REMARK                            x       y       z     vdW  Elec       q    Type
REMARK                         _______ _______ _______ _____ _____    ______ ____
ROOT
ATOM      1  C   UNL     1      58.785  24.482   5.062  0.00  0.00    +0.279 C 
ATOM      2  C   UNL     1      58.880  25.880   5.742  0.00  0.00    +0.201 C 
ATOM      3  C   UNL     1      60.318  26.431   5.706  0.00  0.00    +0.178 C 
ATOM      4  C   UNL     1      61.301  25.295   6.018  0.00  0.00    +0.171 C 
ATOM      5  C   UNL     1      61.107  24.115   5.029  0.00  0.00    +0.197 C 
ATOM      6  O   UNL     1      59.920  24.215   4.254  0.00  0.00    -0.346 OA
ENDROOT
BRANCH   1   7
ATOM      7  O   UNL     1      58.616  23.465   6.020  0.00  0.00    -0.365 OA
ATOM      8  H   UNL     1      58.461  22.622   5.520  0.00  0.00    +0.213 HD
ENDBRANCH   1   7
BRANCH   2   9
ATOM      9  O   UNL     1      58.015  26.794   5.117  0.00  0.00    -0.384 OA
ATOM     10  H   UNL     1      58.104  27.654   5.607  0.00  0.00    +0.210 HD
ENDBRANCH   2   9
BRANCH   3  11
ATOM     11  O   UNL     1      60.590  26.977   4.437  0.00  0.00    -0.386 OA
ATOM     12  H   UNL     1      60.250  26.330   3.765  0.00  0.00    +0.210 HD
ENDBRANCH   3  11
BRANCH   4  13
ATOM     13  O   UNL     1      62.619  25.775   5.967  0.00  0.00    -0.387 OA
ATOM     14  H   UNL     1      63.214  24.987   6.070  0.00  0.00    +0.210 HD
ENDBRANCH   4  13
TORSDOF 4
ENDMDL
MODEL 3
REMARK VINA RESULT:    -4.538      1.166      3.124
REMARK INTER + INTRA:          -5.069
REMARK INTER:                  -5.069
REMARK INTRA:                   0.000
REMARK UNBOUND:                 0.000
REMARK  Name = RIP
REMARK  4 active torsions:
REMARK  status: ('A' for Active; 'I' for Inactive)
REMARK    1  A    between atoms: C_1  and  O_6
REMARK    2  A    between atoms: C_2  and  O_7
REMARK    3  A    between atoms: C_3  and  O_8
REMARK    4  A    between atoms: C_4  and  O_9
REMARK                            x       y       z     vdW  Elec       q    Type
REMARK                         _______ _______ _______ _____ _____    ______ ____
ROOT
ATOM      1  C   UNL     1      60.532  27.790   5.998  0.00  0.00    +0.279 C 
ATOM      2  C   UNL     1      61.934  27.522   6.623  0.00  0.00    +0.201 C 
ATOM      3  C   UNL     1      62.555  26.220   6.083  0.00  0.00    +0.178 C 
ATOM      4  C   UNL     1      61.469  25.139   6.003  0.00  0.00    +0.171 C 
ATOM      5  C   UNL     1      60.281  25.621   5.129  0.00  0.00    +0.197 C 
ATOM      6  O   UNL     1      60.322  27.010   4.832  0.00  0.00    -0.346 OA
ENDROOT
BRANCH   1   7
ATOM      7  O   UNL     1      59.509  27.557   6.935  0.00  0.00    -0.365 OA
ATOM      8  H   UNL     1      58.791  27.064   6.459  0.00  0.00    +0.213 HD
ENDBRANCH   1   7
BRANCH   2   9
ATOM      9  O   UNL     1      62.803  28.595   6.366  0.00  0.00    -0.384 OA
ATOM     10  H   UNL     1      62.969  28.601   5.386  0.00  0.00    +0.210 HD
ENDBRANCH   2   9
BRANCH   3  11
ATOM     11  O   UNL     1      63.113  26.447   4.811  0.00  0.00    -0.386 OA
ATOM     12  H   UNL     1      63.755  25.709   4.641  0.00  0.00    +0.210 HD
ENDBRANCH   3  11
BRANCH   4  13
ATOM     13  O   UNL     1      62.014  23.951   5.491  0.00  0.00    -0.387 OA
ATOM     14  H   UNL     1      62.918  24.177   5.148  0.00  0.00    +0.210 HD
ENDBRANCH   4  13
TORSDOF 4
ENDMDL
MODEL 4
REMARK VINA RESULT:    -4.454      1.885      3.317
REMARK INTER + INTRA:          -4.975
REMARK INTER:                  -4.975
REMARK INTRA:                   0.000
REMARK UNBOUND:                 0.000
REMARK  Name = RIP
REMARK  4 active torsions:
REMARK  status: ('A' for Active; 'I' for Inactive)
REMARK    1  A    between atoms: C_1  and  O_6
REMARK    2  A    between atoms: C_2  and  O_7
REMARK    3  A    between atoms: C_3  and  O_8
REMARK    4  A    between atoms: C_4  and  O_9
REMARK                            x       y       z     vdW  Elec       q    Type
REMARK                         _______ _______ _______ _____ _____    ______ ____
ROOT
ATOM      1  C   UNL     1      62.683  23.824   4.738  0.00  0.00    +0.279 C 
ATOM      2  C   UNL     1      63.176  25.299   4.829  0.00  0.00    +0.201 C 
ATOM      3  C   UNL     1      62.240  26.156   5.702  0.00  0.00    +0.178 C 
ATOM      4  C   UNL     1      60.783  25.793   5.385  0.00  0.00    +0.171 C 
ATOM      5  C   UNL     1      60.540  24.275   5.591  0.00  0.00    +0.197 C 
ATOM      6  O   UNL     1      61.736  23.526   5.751  0.00  0.00    -0.346 OA
ENDROOT
BRANCH   1   7
ATOM      7  O   UNL     1      62.144  23.550   3.468  0.00  0.00    -0.365 OA
ATOM      8  H   UNL     1      62.732  23.993   2.803  0.00  0.00    +0.213 HD
ENDBRANCH   1   7
BRANCH   2   9
ATOM      9  O   UNL     1      64.480  25.353   5.352  0.00  0.00    -0.384 OA
ATOM     10  H   UNL     1      64.892  26.188   5.007  0.00  0.00    +0.210 HD
ENDBRANCH   2   9
BRANCH   3  11
ATOM     11  O   UNL     1      62.514  25.930   7.064  0.00  0.00    -0.386 OA
ATOM     12  H   UNL     1      61.943  26.555   7.582  0.00  0.00    +0.210 HD
ENDBRANCH   3  11
BRANCH   4  13
ATOM     13  O   UNL     1      59.916  26.550   6.189  0.00  0.00    -0.387 OA
ATOM     14  H   UNL     1      59.863  26.086   7.065  0.00  0.00    +0.210 HD
ENDBRANCH   4  13
TORSDOF 4
ENDMDL
MODEL 5
REMARK VINA RESULT:    -4.417      1.874      3.285
REMARK INTER + INTRA:          -4.933
REMARK INTER:                  -4.933
REMARK INTRA:                   0.000
REMARK UNBOUND:                 0.000
REMARK  Name = RIP
REMARK  4 active torsions:
REMARK  status: ('A' for Active; 'I' for Inactive)
REMARK    1  A    between atoms: C_1  and  O_6
REMARK    2  A    between atoms: C_2  and  O_7
REMARK    3  A    between atoms: C_3  and  O_8
REMARK    4  A    between atoms: C_4  and  O_9
REMARK                            x       y       z     vdW  Elec       q    Type
REMARK                         _______ _______ _______ _____ _____    ______ ____
ROOT
ATOM      1  C   UNL     1      61.091  24.510   5.582  0.00  0.00    +0.279 C 
ATOM      2  C   UNL     1      61.896  25.822   5.825  0.00  0.00    +0.201 C 
ATOM      3  C   UNL     1      60.975  27.057   5.836  0.00  0.00    +0.178 C 
ATOM      4  C   UNL     1      59.939  26.923   4.712  0.00  0.00    +0.171 C 
ATOM      5  C   UNL     1      59.139  25.602   4.860  0.00  0.00    +0.197 C 
ATOM      6  O   UNL     1      59.703  24.701   5.802  0.00  0.00    -0.346 OA
ENDROOT
BRANCH   1   7
ATOM      7  O   UNL     1      61.318  24.012   4.286  0.00  0.00    -0.365 OA
ATOM      8  H   UNL     1      60.545  23.433   4.061  0.00  0.00    +0.213 HD
ENDBRANCH   1   7
BRANCH   2   9
ATOM      9  O   UNL     1      62.598  25.754   7.041  0.00  0.00    -0.384 OA
ATOM     10  H   UNL     1      63.399  26.333   6.941  0.00  0.00    +0.210 HD
ENDBRANCH   2   9
BRANCH   3  11
ATOM     11  O   UNL     1      60.332  27.165   7.083  0.00  0.00    -0.386 OA
ATOM     12  H   UNL     1      59.812  28.010   7.069  0.00  0.00    +0.210 HD
ENDBRANCH   3  11
BRANCH   4  13
ATOM     13  O   UNL     1      59.077  28.031   4.722  0.00  0.00    -0.387 OA
ATOM     14  H   UNL     1      58.231  27.729   5.145  0.00  0.00    +0.210 HD
ENDBRANCH   4  13
TORSDOF 4
ENDMDL
MODEL 6
REMARK VINA RESULT:    -4.400      1.814      2.127
REMARK INTER + INTRA:          -4.915
REMARK INTER:                  -4.915
REMARK INTRA:                   0.000
REMARK UNBOUND:                 0.000
REMARK  Name = RIP
REMARK  4 active torsions:
REMARK  status: ('A' for Active; 'I' for Inactive)
REMARK    1  A    between atoms: C_1  and  O_6
REMARK    2  A    between atoms: C_2  and  O_7
REMARK    3  A    between atoms: C_3  and  O_8
REMARK    4  A    between atoms: C_4  and  O_9
REMARK                            x       y       z     vdW  Elec       q    Type
REMARK                         _______ _______ _______ _____ _____    ______ ____
ROOT
ATOM      1  C   UNL     1      62.194  25.681   5.696  0.00  0.00    +0.279 C 
ATOM      2  C   UNL     1      61.338  24.394   5.505  0.00  0.00    +0.201 C 
ATOM      3  C   UNL     1      59.864  24.732   5.214  0.00  0.00    +0.178 C 
ATOM      4  C   UNL     1      59.423  25.886   6.122  0.00  0.00    +0.171 C 
ATOM      5  C   UNL     1      60.348  27.117   5.932  0.00  0.00    +0.197 C 
ATOM      6  O   UNL     1      61.529  26.830   5.196  0.00  0.00    -0.346 OA
ENDROOT
BRANCH   1   7
ATOM      7  O   UNL     1      62.537  25.864   7.048  0.00  0.00    -0.365 OA
ATOM      8  H   UNL     1      61.716  25.696   7.578  0.00  0.00    +0.213 HD
ENDBRANCH   1   7
BRANCH   2   9
ATOM      9  O   UNL     1      61.853  23.609   4.459  0.00  0.00    -0.384 OA
ATOM     10  H   UNL     1      61.507  22.687   4.596  0.00  0.00    +0.210 HD
ENDBRANCH   2   9
BRANCH   3  11
ATOM     11  O   UNL     1      59.713  25.089   3.861  0.00  0.00    -0.386 OA
ATOM     12  H   UNL     1      58.822  24.762   3.572  0.00  0.00    +0.210 HD
ENDBRANCH   3  11
BRANCH   4  13
ATOM     13  O   UNL     1      58.087  26.222   5.853  0.00  0.00    -0.387 OA
ATOM     14  H   UNL     1      57.726  25.508   5.265  0.00  0.00    +0.210 HD
ENDBRANCH   4  13
TORSDOF 4
ENDMDL
MODEL 7
REMARK VINA RESULT:    -4.395      2.560      4.320
REMARK INTER + INTRA:          -4.908
REMARK INTER:                  -4.908
REMARK INTRA:                   0.000
REMARK UNBOUND:                 0.000
REMARK  Name = RIP
REMARK  4 active torsions:
REMARK  status: ('A' for Active; 'I' for Inactive)
REMARK    1  A    between atoms: C_1  and  O_6
REMARK    2  A    between atoms: C_2  and  O_7
REMARK    3  A    between atoms: C_3  and  O_8
REMARK    4  A    between atoms: C_4  and  O_9
REMARK                            x       y       z     vdW  Elec       q    Type
REMARK                         _______ _______ _______ _____ _____    ______ ____
ROOT
ATOM      1  C   UNL     1      61.629  30.526   6.720  0.00  0.00    +0.279 C 
ATOM      2  C   UNL     1      60.763  30.809   7.983  0.00  0.00    +0.201 C 
ATOM      3  C   UNL     1      60.224  29.506   8.603  0.00  0.00    +0.178 C 
ATOM      4  C   UNL     1      59.761  28.568   7.481  0.00  0.00    +0.171 C 
ATOM      5  C   UNL     1      60.916  28.299   6.481  0.00  0.00    +0.197 C 
ATOM      6  O   UNL     1      62.028  29.166   6.653  0.00  0.00    -0.346 OA
ENDROOT
BRANCH   1   7
ATOM      7  O   UNL     1      60.946  30.894   5.546  0.00  0.00    -0.365 OA
ATOM      8  H   UNL     1      61.536  30.659   4.784  0.00  0.00    +0.213 HD
ENDBRANCH   1   7
BRANCH   2   9
ATOM      9  O   UNL     1      61.509  31.510   8.946  0.00  0.00    -0.384 OA
ATOM     10  H   UNL     1      61.895  32.302   8.488  0.00  0.00    +0.210 HD
ENDBRANCH   2   9
BRANCH   3  11
ATOM     11  O   UNL     1      61.229  28.889   9.372  0.00  0.00    -0.386 OA
ATOM     12  H   UNL     1      61.303  27.952   9.054  0.00  0.00    +0.210 HD
ENDBRANCH   3  11
BRANCH   4  13
ATOM     13  O   UNL     1      59.287  27.365   8.029  0.00  0.00    -0.387 OA
ATOM     14  H   UNL     1      58.875  26.856   7.283  0.00  0.00    +0.210 HD
ENDBRANCH   4  13
TORSDOF 4
ENDMDL
MODEL 8
REMARK VINA RESULT:    -4.389      1.852      2.857
REMARK INTER + INTRA:          -4.902
REMARK INTER:                  -4.902
REMARK INTRA:                   0.000
REMARK UNBOUND:                 0.000
REMARK  Name = RIP
REMARK  4 active torsions:
REMARK  status: ('A' for Active; 'I' for Inactive)
REMARK    1  A    between atoms: C_1  and  O_6
REMARK    2  A    between atoms: C_2  and  O_7
REMARK    3  A    between atoms: C_3  and  O_8
REMARK    4  A    between atoms: C_4  and  O_9
REMARK                            x       y       z     vdW  Elec       q    Type
REMARK                         _______ _______ _______ _____ _____    ______ ____
ROOT
ATOM      1  C   UNL     1      61.855  24.078   4.986  0.00  0.00    +0.279 C 
ATOM      2  C   UNL     1      60.388  24.604   4.995  0.00  0.00    +0.201 C 
ATOM      3  C   UNL     1      60.311  26.055   5.504  0.00  0.00    +0.178 C 
ATOM      4  C   UNL     1      61.252  26.220   6.704  0.00  0.00    +0.171 C 
ATOM      5  C   UNL     1      62.701  25.816   6.323  0.00  0.00    +0.197 C 
ATOM      6  O   UNL     1      62.791  25.140   5.077  0.00  0.00    -0.346 OA
ENDROOT
BRANCH   1   7
ATOM      7  O   UNL     1      62.065  23.149   6.022  0.00  0.00    -0.365 OA
ATOM      8  H   UNL     1      62.442  23.654   6.788  0.00  0.00    +0.213 HD
ENDBRANCH   1   7
BRANCH   2   9
ATOM      9  O   UNL     1      59.828  24.529   3.708  0.00  0.00    -0.384 OA
ATOM     10  H   UNL     1      60.502  24.903   3.081  0.00  0.00    +0.210 HD
ENDBRANCH   2   9
BRANCH   3  11
ATOM     11  O   UNL     1      60.672  26.944   4.474  0.00  0.00    -0.386 OA
ATOM     12  H   UNL     1      59.895  27.007   3.860  0.00  0.00    +0.210 HD
ENDBRANCH   3  11
BRANCH   4  13
ATOM     13  O   UNL     1      61.210  27.545   7.166  0.00  0.00    -0.387 OA
ATOM     14  H   UNL     1      61.256  27.503   8.157  0.00  0.00    +0.210 HD
ENDBRANCH   4  13
TORSDOF 4
ENDMDL
MODEL 9
REMARK VINA RESULT:    -4.325      1.860      3.393
REMARK INTER + INTRA:          -4.830
REMARK INTER:                  -4.830
REMARK INTRA:                   0.000
REMARK UNBOUND:                 0.000
REMARK  Name = RIP
REMARK  4 active torsions:
REMARK  status: ('A' for Active; 'I' for Inactive)
REMARK    1  A    between atoms: C_1  and  O_6
REMARK    2  A    between atoms: C_2  and  O_7
REMARK    3  A    between atoms: C_3  and  O_8
REMARK    4  A    between atoms: C_4  and  O_9
REMARK                            x       y       z     vdW  Elec       q    Type
REMARK                         _______ _______ _______ _____ _____    ______ ____
ROOT
ATOM      1  C   UNL     1      60.175  26.762   5.007  0.00  0.00    +0.279 C 
ATOM      2  C   UNL     1      59.286  27.918   5.555  0.00  0.00    +0.201 C 
ATOM      3  C   UNL     1      60.055  28.794   6.562  0.00  0.00    +0.178 C 
ATOM      4  C   UNL     1      60.891  27.893   7.480  0.00  0.00    +0.171 C 
ATOM      5  C   UNL     1      61.844  26.997   6.646  0.00  0.00    +0.197 C 
ATOM      6  O   UNL     1      61.552  26.999   5.255  0.00  0.00    -0.346 OA
ENDROOT
BRANCH   1   7
ATOM      7  O   UNL     1      59.785  25.524   5.550  0.00  0.00    -0.365 OA
ATOM      8  H   UNL     1      60.138  25.493   6.477  0.00  0.00    +0.213 HD
ENDBRANCH   1   7
BRANCH   2   9
ATOM      9  O   UNL     1      58.815  28.721   4.503  0.00  0.00    -0.384 OA
ATOM     10  H   UNL     1      57.850  28.883   4.677  0.00  0.00    +0.210 HD
ENDBRANCH   2   9
BRANCH   3  11
ATOM     11  O   UNL     1      60.886  29.698   5.874  0.00  0.00    -0.386 OA
ATOM     12  H   UNL     1      60.700  29.584   4.906  0.00  0.00    +0.210 HD
ENDBRANCH   3  11
BRANCH   4  13
ATOM     13  O   UNL     1      61.616  28.678   8.390  0.00  0.00    -0.387 OA
ATOM     14  H   UNL     1      61.731  29.570   7.968  0.00  0.00    +0.210 HD
ENDBRANCH   4  13
TORSDOF 4
ENDMDL
MODEL 10
REMARK VINA RESULT:    -4.314     10.021     11.334
REMARK INTER + INTRA:          -4.819
REMARK INTER:                  -4.819
REMARK INTRA:                   0.000
REMARK UNBOUND:                 0.000
REMARK  Name = RIP
REMARK  4 active torsions:
REMARK  status: ('A' for Active; 'I' for Inactive)
REMARK    1  A    between atoms: C_1  and  O_6
REMARK    2  A    between atoms: C_2  and  O_7
REMARK    3  A    between atoms: C_3  and  O_8
REMARK    4  A    between atoms: C_4  and  O_9
REMARK                            x       y       z     vdW  Elec       q    Type
REMARK                         _______ _______ _______ _____ _____    ______ ____
ROOT
ATOM      1  C   UNL     1      65.622  38.181   8.525  0.00  0.00    +0.279 C 
ATOM      2  C   UNL     1      64.544  37.059   8.607  0.00  0.00    +0.201 C 
ATOM      3  C   UNL     1      65.046  35.848   9.415  0.00  0.00    +0.178 C 
ATOM      4  C   UNL     1      66.505  35.561   9.038  0.00  0.00    +0.171 C 
ATOM      5  C   UNL     1      67.388  36.817   9.268  0.00  0.00    +0.197 C 
ATOM      6  O   UNL     1      66.638  38.001   9.500  0.00  0.00    -0.346 OA
ENDROOT
BRANCH   1   7
ATOM      7  O   UNL     1      66.186  38.247   7.238  0.00  0.00    -0.365 OA
ATOM      8  H   UNL     1      66.161  37.327   6.865  0.00  0.00    +0.213 HD
ENDBRANCH   1   7
BRANCH   2   9
ATOM      9  O   UNL     1      63.363  37.551   9.188  0.00  0.00    -0.384 OA
ATOM     10  H   UNL     1      63.434  37.385  10.165  0.00  0.00    +0.210 HD
ENDBRANCH   2   9
BRANCH   3  11
ATOM     11  O   UNL     1      64.941  36.115  10.793  0.00  0.00    -0.386 OA
ATOM     12  H   UNL     1      65.864  36.241  11.135  0.00  0.00    +0.210 HD
ENDBRANCH   3  11
BRANCH   4  13
ATOM     13  O   UNL     1      66.986  34.473   9.784  0.00  0.00    -0.387 OA
ATOM     14  H   UNL     1      67.035  34.774  10.728  0.00  0.00    +0.210 HD
ENDBRANCH   4  13
TORSDOF 4
ENDMDL
MODEL 11
REMARK VINA RESULT:    -4.255      3.206      4.815
REMARK INTER + INTRA:          -4.752
REMARK INTER:                  -4.752
REMARK INTRA:                   0.000
REMARK UNBOUND:                 0.000
REMARK  Name = RIP
REMARK  4 active torsions:
REMARK  status: ('A' for Active; 'I' for Inactive)
REMARK    1  A    between atoms: C_1  and  O_6
REMARK    2  A    between atoms: C_2  and  O_7
REMARK    3  A    between atoms: C_3  and  O_8
REMARK    4  A    between atoms: C_4  and  O_9
REMARK                            x       y       z     vdW  Elec       q    Type
REMARK                         _______ _______ _______ _____ _____    ______ ____
ROOT
ATOM      1  C   UNL     1      59.197  26.876   9.201  0.00  0.00    +0.279 C 
ATOM      2  C   UNL     1      59.771  27.752   8.047  0.00  0.00    +0.201 C 
ATOM      3  C   UNL     1      60.165  29.156   8.545  0.00  0.00    +0.178 C 
ATOM      4  C   UNL     1      59.090  29.669   9.511  0.00  0.00    +0.171 C 
ATOM      5  C   UNL     1      58.888  28.674  10.684  0.00  0.00    +0.197 C 
ATOM      6  O   UNL     1      59.514  27.416  10.474  0.00  0.00    -0.346 OA
ENDROOT
BRANCH   1   7
ATOM      7  O   UNL     1      57.805  26.717   9.069  0.00  0.00    -0.365 OA
ATOM      8  H   UNL     1      57.534  26.013   9.714  0.00  0.00    +0.213 HD
ENDBRANCH   1   7
BRANCH   2   9
ATOM      9  O   UNL     1      60.890  27.132   7.465  0.00  0.00    -0.384 OA
ATOM     10  H   UNL     1      60.549  26.564   6.725  0.00  0.00    +0.210 HD
ENDBRANCH   2   9
BRANCH   3  11
ATOM     11  O   UNL     1      61.416  29.102   9.189  0.00  0.00    -0.386 OA
ATOM     12  H   UNL     1      61.263  28.701  10.084  0.00  0.00    +0.210 HD
ENDBRANCH   3  11
BRANCH   4  13
ATOM     13  O   UNL     1      59.446  30.939   9.991  0.00  0.00    -0.387 OA
ATOM     14  H   UNL     1      58.807  31.158  10.719  0.00  0.00    +0.210 HD
ENDBRANCH   4  13
TORSDOF 4
ENDMDL
MODEL 12
REMARK VINA RESULT:    -4.229      2.368      3.435
REMARK INTER + INTRA:          -4.724
REMARK INTER:                  -4.724
REMARK INTRA:                   0.000
REMARK UNBOUND:                 0.000
REMARK  Name = RIP
REMARK  4 active torsions:
REMARK  status: ('A' for Active; 'I' for Inactive)
REMARK    1  A    between atoms: C_1  and  O_6
REMARK    2  A    between atoms: C_2  and  O_7
REMARK    3  A    between atoms: C_3  and  O_8
REMARK    4  A    between atoms: C_4  and  O_9
REMARK                            x       y       z     vdW  Elec       q    Type
REMARK                         _______ _______ _______ _____ _____    ______ ____
ROOT
ATOM      1  C   UNL     1      59.846  27.144   5.597  0.00  0.00    +0.279 C 
ATOM      2  C   UNL     1      60.916  26.016   5.691  0.00  0.00    +0.201 C 
ATOM      3  C   UNL     1      60.309  24.632   5.392  0.00  0.00    +0.178 C 
ATOM      4  C   UNL     1      58.938  24.526   6.074  0.00  0.00    +0.171 C 
ATOM      5  C   UNL     1      58.007  25.678   5.615  0.00  0.00    +0.197 C 
ATOM      6  O   UNL     1      58.685  26.707   4.907  0.00  0.00    -0.346 OA
ENDROOT
BRANCH   1   7
ATOM      7  O   UNL     1      59.504  27.623   6.875  0.00  0.00    -0.365 OA
ATOM      8  H   UNL     1      59.825  26.950   7.530  0.00  0.00    +0.213 HD
ENDBRANCH   1   7
BRANCH   2   9
ATOM      9  O   UNL     1      61.974  26.263   4.800  0.00  0.00    -0.384 OA
ATOM     10  H   UNL     1      61.570  26.635   3.972  0.00  0.00    +0.210 HD
ENDBRANCH   2   9
BRANCH   3  11
ATOM     11  O   UNL     1      60.178  24.457   4.002  0.00  0.00    -0.386 OA
ATOM     12  H   UNL     1      60.585  23.579   3.781  0.00  0.00    +0.210 HD
ENDBRANCH   3  11
BRANCH   4  13
ATOM     13  O   UNL     1      58.360  23.277   5.792  0.00  0.00    -0.387 OA
ATOM     14  H   UNL     1      58.386  23.168   4.806  0.00  0.00    +0.210 HD
ENDBRANCH   4  13
TORSDOF 4
ENDMDL
MODEL 13
REMARK VINA RESULT:    -4.131      2.327      3.872
REMARK INTER + INTRA:          -4.614
REMARK INTER:                  -4.614
REMARK INTRA:                   0.000
REMARK UNBOUND:                 0.000
REMARK  Name = RIP
REMARK  4 active torsions:
REMARK  status: ('A' for Active; 'I' for Inactive)
REMARK    1  A    between atoms: C_1  and  O_6
REMARK    2  A    between atoms: C_2  and  O_7
REMARK    3  A    between atoms: C_3  and  O_8
REMARK    4  A    between atoms: C_4  and  O_9
REMARK                            x       y       z     vdW  Elec       q    Type
REMARK                         _______ _______ _______ _____ _____    ______ ____
ROOT
ATOM      1  C   UNL     1      61.194  28.139   7.101  0.00  0.00    +0.279 C 
ATOM      2  C   UNL     1      60.404  28.905   8.204  0.00  0.00    +0.201 C 
ATOM      3  C   UNL     1      59.294  28.030   8.816  0.00  0.00    +0.178 C 
ATOM      4  C   UNL     1      58.595  27.246   7.697  0.00  0.00    +0.171 C 
ATOM      5  C   UNL     1      59.622  26.403   6.896  0.00  0.00    +0.197 C 
ATOM      6  O   UNL     1      60.973  26.740   7.177  0.00  0.00    -0.346 OA
ENDROOT
BRANCH   1   7
ATOM      7  O   UNL     1      60.865  28.618   5.820  0.00  0.00    -0.365 OA
ATOM      8  H   UNL     1      59.965  28.260   5.601  0.00  0.00    +0.213 HD
ENDBRANCH   1   7
BRANCH   2   9
ATOM      9  O   UNL     1      61.270  29.339   9.222  0.00  0.00    -0.384 OA
ATOM     10  H   UNL     1      62.096  29.665   8.775  0.00  0.00    +0.210 HD
ENDBRANCH   2   9
BRANCH   3  11
ATOM     11  O   UNL     1      59.847  27.145   9.761  0.00  0.00    -0.386 OA
ATOM     12  H   UNL     1      59.900  26.254   9.327  0.00  0.00    +0.210 HD
ENDBRANCH   3  11
BRANCH   4  13
ATOM     13  O   UNL     1      57.594  26.426   8.242  0.00  0.00    -0.387 OA
ATOM     14  H   UNL     1      57.631  25.566   7.747  0.00  0.00    +0.210 HD
ENDBRANCH   4  13
TORSDOF 4
ENDMDL
MODEL 14
REMARK VINA RESULT:    -4.068      1.579      1.854
REMARK INTER + INTRA:          -4.544
REMARK INTER:                  -4.544
REMARK INTRA:                   0.000
REMARK UNBOUND:                 0.000
REMARK  Name = RIP
REMARK  4 active torsions:
REMARK  status: ('A' for Active; 'I' for Inactive)
REMARK    1  A    between atoms: C_1  and  O_6
REMARK    2  A    between atoms: C_2  and  O_7
REMARK    3  A    between atoms: C_3  and  O_8
REMARK    4  A    between atoms: C_4  and  O_9
REMARK                            x       y       z     vdW  Elec       q    Type
REMARK                         _______ _______ _______ _____ _____    ______ ____
ROOT
ATOM      1  C   UNL     1      61.757  28.370   6.787  0.00  0.00    +0.279 C 
ATOM      2  C   UNL     1      61.690  26.878   6.343  0.00  0.00    +0.201 C 
ATOM      3  C   UNL     1      60.381  26.569   5.592  0.00  0.00    +0.178 C 
ATOM      4  C   UNL     1      59.215  27.270   6.302  0.00  0.00    +0.171 C 
ATOM      5  C   UNL     1      59.476  28.796   6.408  0.00  0.00    +0.197 C 
ATOM      6  O   UNL     1      60.811  29.165   6.091  0.00  0.00    -0.346 OA
ENDROOT
BRANCH   1   7
ATOM      7  O   UNL     1      61.572  28.492   8.176  0.00  0.00    -0.365 OA
ATOM      8  H   UNL     1      61.988  27.694   8.593  0.00  0.00    +0.213 HD
ENDBRANCH   1   7
BRANCH   2   9
ATOM      9  O   UNL     1      62.785  26.556   5.523  0.00  0.00    -0.384 OA
ATOM     10  H   UNL     1      62.927  25.577   5.606  0.00  0.00    +0.210 HD
ENDBRANCH   2   9
BRANCH   3  11
ATOM     11  O   UNL     1      60.477  27.011   4.259  0.00  0.00    -0.386 OA
ATOM     12  H   UNL     1      60.722  26.221   3.710  0.00  0.00    +0.210 HD
ENDBRANCH   3  11
BRANCH   4  13
ATOM     13  O   UNL     1      58.016  27.017   5.617  0.00  0.00    -0.387 OA
ATOM     14  H   UNL     1      57.768  27.861   5.157  0.00  0.00    +0.210 HD
ENDBRANCH   4  13
TORSDOF 4
ENDMDL
MODEL 15
REMARK VINA RESULT:    -4.064      3.113      4.332
REMARK INTER + INTRA:          -4.539
REMARK INTER:                  -4.539
REMARK INTRA:                   0.000
REMARK UNBOUND:                 0.000
REMARK  Name = RIP
REMARK  4 active torsions:
REMARK  status: ('A' for Active; 'I' for Inactive)
REMARK    1  A    between atoms: C_1  and  O_6
REMARK    2  A    between atoms: C_2  and  O_7
REMARK    3  A    between atoms: C_3  and  O_8
REMARK    4  A    between atoms: C_4  and  O_9
REMARK                            x       y       z     vdW  Elec       q    Type
REMARK                         _______ _______ _______ _____ _____    ______ ____
ROOT
ATOM      1  C   UNL     1      59.032  28.316   6.560  0.00  0.00    +0.279 C 
ATOM      2  C   UNL     1      59.969  29.507   6.921  0.00  0.00    +0.201 C 
ATOM      3  C   UNL     1      60.661  29.291   8.280  0.00  0.00    +0.178 C 
ATOM      4  C   UNL     1      59.649  28.710   9.275  0.00  0.00    +0.171 C 
ATOM      5  C   UNL     1      59.032  27.397   8.724  0.00  0.00    +0.197 C 
ATOM      6  O   UNL     1      59.314  27.171   7.350  0.00  0.00    -0.346 OA
ENDROOT
BRANCH   1   7
ATOM      7  O   UNL     1      57.679  28.680   6.690  0.00  0.00    -0.365 OA
ATOM      8  H   UNL     1      57.290  28.094   7.390  0.00  0.00    +0.213 HD
ENDBRANCH   1   7
BRANCH   2   9
ATOM      9  O   UNL     1      60.943  29.689   5.924  0.00  0.00    -0.384 OA
ATOM     10  H   UNL     1      61.827  29.608   6.371  0.00  0.00    +0.210 HD
ENDBRANCH   2   9
BRANCH   3  11
ATOM     11  O   UNL     1      61.754  28.417   8.127  0.00  0.00    -0.386 OA
ATOM     12  H   UNL     1      61.685  27.739   8.849  0.00  0.00    +0.210 HD
ENDBRANCH   3  11
BRANCH   4  13
ATOM     13  O   UNL     1      60.270  28.486  10.513  0.00  0.00    -0.387 OA
ATOM     14  H   UNL     1      60.713  29.338  10.768  0.00  0.00    +0.210 HD
ENDBRANCH   4  13
TORSDOF 4
ENDMDL
MODEL 16
REMARK VINA RESULT:    -4.054      1.886      3.620
REMARK INTER + INTRA:          -4.527
REMARK INTER:                  -4.527
REMARK INTRA:                   0.000
REMARK UNBOUND:                 0.000
REMARK  Name = RIP
REMARK  4 active torsions:
REMARK  status: ('A' for Active; 'I' for Inactive)
REMARK    1  A    between atoms: C_1  and  O_6
REMARK    2  A    between atoms: C_2  and  O_7
REMARK    3  A    between atoms: C_3  and  O_8
REMARK    4  A    between atoms: C_4  and  O_9
REMARK                            x       y       z     vdW  Elec       q    Type
REMARK                         _______ _______ _______ _____ _____    ______ ____
ROOT
ATOM      1  C   UNL     1      58.900  27.124   6.160  0.00  0.00    +0.279 C 
ATOM      2  C   UNL     1      60.206  27.805   5.653  0.00  0.00    +0.201 C 
ATOM      3  C   UNL     1      61.174  28.107   6.812  0.00  0.00    +0.178 C 
ATOM      4  C   UNL     1      60.377  28.644   8.008  0.00  0.00    +0.171 C 
ATOM      5  C   UNL     1      59.271  27.638   8.424  0.00  0.00    +0.197 C 
ATOM      6  O   UNL     1      59.056  26.606   7.472  0.00  0.00    -0.346 OA
ENDROOT
BRANCH   1   7
ATOM      7  O   UNL     1      57.814  28.017   6.113  0.00  0.00    -0.365 OA
ATOM      8  H   UNL     1      57.539  28.085   5.162  0.00  0.00    +0.213 HD
ENDBRANCH   1   7
BRANCH   2   9
ATOM      9  O   UNL     1      60.852  26.992   4.706  0.00  0.00    -0.384 OA
ATOM     10  H   UNL     1      61.804  26.932   4.982  0.00  0.00    +0.210 HD
ENDBRANCH   2   9
BRANCH   3  11
ATOM     11  O   UNL     1      61.869  26.937   7.173  0.00  0.00    -0.386 OA
ATOM     12  H   UNL     1      62.798  27.208   7.394  0.00  0.00    +0.210 HD
ENDBRANCH   3  11
BRANCH   4  13
ATOM     13  O   UNL     1      61.243  28.902   9.083  0.00  0.00    -0.387 OA
ATOM     14  H   UNL     1      62.053  29.329   8.699  0.00  0.00    +0.210 HD
ENDBRANCH   4  13
TORSDOF 4
ENDMDL
MODEL 17
REMARK VINA RESULT:    -4.043      1.758      3.855
REMARK INTER + INTRA:          -4.516
REMARK INTER:                  -4.516
REMARK INTRA:                   0.000
REMARK UNBOUND:                 0.000
REMARK  Name = RIP
REMARK  4 active torsions:
REMARK  status: ('A' for Active; 'I' for Inactive)
REMARK    1  A    between atoms: C_1  and  O_6
REMARK    2  A    between atoms: C_2  and  O_7
REMARK    3  A    between atoms: C_3  and  O_8
REMARK    4  A    between atoms: C_4  and  O_9
REMARK                            x       y       z     vdW  Elec       q    Type
REMARK                         _______ _______ _______ _____ _____    ______ ____
ROOT
ATOM      1  C   UNL     1      59.294  28.790   7.554  0.00  0.00    +0.279 C 
ATOM      2  C   UNL     1      60.644  28.270   8.133  0.00  0.00    +0.201 C 
ATOM      3  C   UNL     1      61.606  27.826   7.015  0.00  0.00    +0.178 C 
ATOM      4  C   UNL     1      60.818  27.056   5.948  0.00  0.00    +0.171 C 
ATOM      5  C   UNL     1      59.652  27.920   5.399  0.00  0.00    +0.197 C 
ATOM      6  O   UNL     1      59.399  29.086   6.170  0.00  0.00    -0.346 OA
ENDROOT
BRANCH   1   7
ATOM      7  O   UNL     1      58.259  27.865   7.779  0.00  0.00    -0.365 OA
ATOM      8  H   UNL     1      57.482  28.380   8.119  0.00  0.00    +0.213 HD
ENDBRANCH   1   7
BRANCH   2   9
ATOM      9  O   UNL     1      61.262  29.263   8.913  0.00  0.00    -0.384 OA
ATOM     10  H   UNL     1      61.626  28.808   9.718  0.00  0.00    +0.210 HD
ENDBRANCH   2   9
BRANCH   3  11
ATOM     11  O   UNL     1      62.230  28.952   6.445  0.00  0.00    -0.386 OA
ATOM     12  H   UNL     1      63.153  28.987   6.809  0.00  0.00    +0.210 HD
ENDBRANCH   3  11
BRANCH   4  13
ATOM     13  O   UNL     1      61.678  26.664   4.909  0.00  0.00    -0.387 OA
ATOM     14  H   UNL     1      62.092  27.493   4.555  0.00  0.00    +0.210 HD
ENDBRANCH   4  13
TORSDOF 4
ENDMDL
MODEL 18
REMARK VINA RESULT:    -4.041      1.609      3.032
REMARK INTER + INTRA:          -4.513
REMARK INTER:                  -4.513
REMARK INTRA:                   0.000
REMARK UNBOUND:                 0.000
REMARK  Name = RIP
REMARK  4 active torsions:
REMARK  status: ('A' for Active; 'I' for Inactive)
REMARK    1  A    between atoms: C_1  and  O_6
REMARK    2  A    between atoms: C_2  and  O_7
REMARK    3  A    between atoms: C_3  and  O_8
REMARK    4  A    between atoms: C_4  and  O_9
REMARK                            x       y       z     vdW  Elec       q    Type
REMARK                         _______ _______ _______ _____ _____    ______ ____
ROOT
ATOM      1  C   UNL     1      61.370  26.406   6.273  0.00  0.00    +0.279 C 
ATOM      2  C   UNL     1      62.305  27.633   6.488  0.00  0.00    +0.201 C 
ATOM      3  C   UNL     1      61.532  28.841   7.053  0.00  0.00    +0.178 C 
ATOM      4  C   UNL     1      60.179  28.951   6.339  0.00  0.00    +0.171 C 
ATOM      5  C   UNL     1      59.375  27.632   6.481  0.00  0.00    +0.197 C 
ATOM      6  O   UNL     1      60.148  26.549   6.980  0.00  0.00    -0.346 OA
ENDROOT
BRANCH   1   7
ATOM      7  O   UNL     1      61.123  26.193   4.905  0.00  0.00    -0.365 OA
ATOM      8  H   UNL     1      62.004  26.049   4.472  0.00  0.00    +0.213 HD
ENDBRANCH   1   7
BRANCH   2   9
ATOM      9  O   UNL     1      63.359  27.306   7.358  0.00  0.00    -0.384 OA
ATOM     10  H   UNL     1      63.033  26.566   7.936  0.00  0.00    +0.210 HD
ENDBRANCH   2   9
BRANCH   3  11
ATOM     11  O   UNL     1      61.343  28.683   8.438  0.00  0.00    -0.386 OA
ATOM     12  H   UNL     1      60.826  29.470   8.752  0.00  0.00    +0.210 HD
ENDBRANCH   3  11
BRANCH   4  13
ATOM     13  O   UNL     1      59.452  30.035   6.858  0.00  0.00    -0.387 OA
ATOM     14  H   UNL     1      58.668  30.163   6.263  0.00  0.00    +0.210 HD
ENDBRANCH   4  13
TORSDOF 4
ENDMDL
MODEL 19
REMARK VINA RESULT:    -4.035      4.024      5.637
REMARK INTER + INTRA:          -4.506
REMARK INTER:                  -4.506
REMARK INTRA:                   0.000
REMARK UNBOUND:                 0.000
REMARK  Name = RIP
REMARK  4 active torsions:
REMARK  status: ('A' for Active; 'I' for Inactive)
REMARK    1  A    between atoms: C_1  and  O_6
REMARK    2  A    between atoms: C_2  and  O_7
REMARK    3  A    between atoms: C_3  and  O_8
REMARK    4  A    between atoms: C_4  and  O_9
REMARK                            x       y       z     vdW  Elec       q    Type
REMARK                         _______ _______ _______ _____ _____    ______ ____
ROOT
ATOM      1  C   UNL     1      57.099  23.193   4.595  0.00  0.00    +0.279 C 
ATOM      2  C   UNL     1      57.878  24.050   3.553  0.00  0.00    +0.201 C 
ATOM      3  C   UNL     1      59.044  24.815   4.207  0.00  0.00    +0.178 C 
ATOM      4  C   UNL     1      58.583  25.378   5.557  0.00  0.00    +0.171 C 
ATOM      5  C   UNL     1      58.049  24.244   6.471  0.00  0.00    +0.197 C 
ATOM      6  O   UNL     1      57.846  23.015   5.788  0.00  0.00    -0.346 OA
ENDROOT
BRANCH   1   7
ATOM      7  O   UNL     1      55.846  23.763   4.883  0.00  0.00    -0.365 OA
ATOM      8  H   UNL     1      55.330  23.083   5.389  0.00  0.00    +0.213 HD
ENDBRANCH   1   7
BRANCH   2   9
ATOM      9  O   UNL     1      58.374  23.240   2.517  0.00  0.00    -0.384 OA
ATOM     10  H   UNL     1      58.996  22.589   2.937  0.00  0.00    +0.210 HD
ENDBRANCH   2   9
BRANCH   3  11
ATOM     11  O   UNL     1      60.141  23.952   4.387  0.00  0.00    -0.386 OA
ATOM     12  H   UNL     1      59.869  23.061   4.042  0.00  0.00    +0.210 HD
ENDBRANCH   3  11
BRANCH   4  13
ATOM     13  O   UNL     1      59.643  26.060   6.177  0.00  0.00    -0.387 OA
ATOM     14  H   UNL     1      60.423  25.446   6.163  0.00  0.00    +0.210 HD
ENDBRANCH   4  13
TORSDOF 4
ENDMDL
MODEL 20
REMARK VINA RESULT:    -3.987      1.641      3.144
REMARK INTER + INTRA:          -4.453
REMARK INTER:                  -4.453
REMARK INTRA:                   0.000
REMARK UNBOUND:                 0.000
REMARK  Name = RIP
REMARK  4 active torsions:
REMARK  status: ('A' for Active; 'I' for Inactive)
REMARK    1  A    between atoms: C_1  and  O_6
REMARK    2  A    between atoms: C_2  and  O_7
REMARK    3  A    between atoms: C_3  and  O_8
REMARK    4  A    between atoms: C_4  and  O_9
REMARK                            x       y       z     vdW  Elec       q    Type
REMARK                         _______ _______ _______ _____ _____    ______ ____
ROOT
ATOM      1  C   UNL     1      61.444  28.428   7.105  0.00  0.00    +0.279 C 
ATOM      2  C   UNL     1      60.154  28.775   6.304  0.00  0.00    +0.201 C 
ATOM      3  C   UNL     1      59.548  27.525   5.637  0.00  0.00    +0.178 C 
ATOM      4  C   UNL     1      60.678  26.670   5.049  0.00  0.00    +0.171 C 
ATOM      5  C   UNL     1      61.712  26.299   6.144  0.00  0.00    +0.197 C 
ATOM      6  O   UNL     1      61.549  27.034   7.349  0.00  0.00    -0.346 OA
ENDROOT
BRANCH   1   7
ATOM      7  O   UNL     1      62.593  28.896   6.441  0.00  0.00    -0.365 OA
ATOM      8  H   UNL     1      62.892  29.710   6.923  0.00  0.00    +0.213 HD
ENDBRANCH   1   7
BRANCH   2   9
ATOM      9  O   UNL     1      59.195  29.367   7.143  0.00  0.00    -0.384 OA
ATOM     10  H   UNL     1      59.695  29.857   7.848  0.00  0.00    +0.210 HD
ENDBRANCH   2   9
BRANCH   3  11
ATOM     11  O   UNL     1      58.817  26.784   6.584  0.00  0.00    -0.386 OA
ATOM     12  H   UNL     1      57.948  27.247   6.706  0.00  0.00    +0.210 HD
ENDBRANCH   3  11
BRANCH   4  13
ATOM     13  O   UNL     1      60.144  25.515   4.456  0.00  0.00    -0.387 OA
ATOM     14  H   UNL     1      59.500  25.132   5.109  0.00  0.00    +0.210 HD
ENDBRANCH   4  13
TORSDOF 4
ENDMDL
