REMARK  Name = AMQ
REMARK  7 active torsions:
REMARK  status: ('A' for Active; 'I' for Inactive)
REMARK    1  A    between atoms: N_1  and  CA_2
REMARK    2  A    between atoms: CA_2  and  C_3
REMARK    3  A    between atoms: CA_2  and  C_6
REMARK    4  A    between atoms: C_3  and  OXT_5
REMARK    5  A    between atoms: C_6  and  C_7
REMARK    6  A    between atoms: C_8  and  O_11
REMARK    7  A    between atoms: C_9  and  C_10
REMARK                            x       y       z     vdW  Elec       q    Type
REMARK                         _______ _______ _______ _____ _____    ______ ____
ROOT
ATOM      1  C   UNL     1      -0.011   0.394  -0.736  0.00  0.00    +0.074 C 
ENDROOT
BRANCH   1   2
ATOM      2  C   UNL     1      -1.121   0.438   0.279  0.00  0.00    +0.059 A 
ATOM      3  C   UNL     1      -1.461   1.463   1.140  0.00  0.00    +0.256 A 
ATOM      4  C   UNL     1      -2.005  -0.570   0.618  0.00  0.00    +0.141 A 
ATOM      5  C   UNL     1      -2.089  -1.932   0.012  0.00  0.00    +0.089 C 
ATOM      6  N   UNL     1      -2.487   1.083   1.924  0.00  0.00    -0.040 NA
ATOM      7  O   UNL     1      -2.786  -0.138   1.583  0.00  0.00    -0.356 OA
BRANCH   3   8
ATOM      8  O   UNL     1      -0.856   2.713   1.225  0.00  0.00    -0.490 OA
ATOM      9  H   UNL     1      -0.076   2.966   0.630  0.00  0.00    +0.294 HD
ENDBRANCH   3   8
ENDBRANCH   1   2
BRANCH   1  10
ATOM     10  CA  UNL     1       1.275  -0.223  -0.156  0.00  0.00    +0.165 C 
BRANCH  10  11
ATOM     11  N   UNL     1       1.865   0.659   0.854  0.00  0.00    -0.318 NA
ATOM     12  H1  UNL     1       1.238   0.672   1.690  0.00  0.00    +0.119 HD
ATOM     13  H2  UNL     1       2.760   0.231   1.185  0.00  0.00    +0.119 HD
ENDBRANCH  10  11
BRANCH  10  14
ATOM     14  C   UNL     1       2.261  -0.448  -1.267  0.00  0.00    +0.322 C 
ATOM     15  O   UNL     1       2.486  -1.616  -1.685  0.00  0.00    -0.249 OA
BRANCH  14  16
ATOM     16  OXT UNL     1       2.905   0.636  -1.857  0.00  0.00    -0.480 OA
ATOM     17  HXT UNL     1       3.564   0.499  -2.614  0.00  0.00    +0.295 HD
ENDBRANCH  14  16
ENDBRANCH  10  14
ENDBRANCH   1  10
TORSDOF 6
