MODEL 1
REMARK VINA RESULT:    -7.289      0.000      0.000
REMARK INTER + INTRA:         -11.815
REMARK INTER:                 -10.698
REMARK INTRA:                  -1.116
REMARK UNBOUND:                -1.116
REMARK  Name = BEM
REMARK  12 active torsions:
REMARK  status: ('A' for Active; 'I' for Inactive)
REMARK    1  A    between atoms: C_1  and  O_20
REMARK    2  A    between atoms: C_2  and  O_3
REMARK    3  A    between atoms: C_4  and  O_5
REMARK    4  A    between atoms: C_6  and  O_7
REMARK    5  A    between atoms: C_8  and  C_10
REMARK    6  A    between atoms: C_10  and  O_11
REMARK    7  A    between atoms: C_13  and  O_14
REMARK    8  A    between atoms: C_15  and  O_16
REMARK    9  A    between atoms: C_17  and  O_18
REMARK   10  A    between atoms: C_19  and  O_20
REMARK   11  A    between atoms: C_21  and  C_23
REMARK   12  A    between atoms: C_23  and  O_25
REMARK                            x       y       z     vdW  Elec       q    Type
REMARK                         _______ _______ _______ _____ _____    ______ ____
ROOT
ATOM      1  O   UNL     1     -34.657  12.596 -17.017  0.00  0.00    -0.340 OA
ENDROOT
BRANCH   1   2
ATOM      2  C   UNL     1     -35.092  12.718 -15.669  0.00  0.00    +0.283 C 
ATOM      3  C   UNL     1     -34.982  14.181 -15.179  0.00  0.00    +0.201 C 
ATOM      4  C   UNL     1     -33.505  14.602 -15.087  0.00  0.00    +0.179 C 
ATOM      5  C   UNL     1     -32.707  13.570 -14.274  0.00  0.00    +0.185 C 
ATOM      6  C   UNL     1     -32.962  12.159 -14.842  0.00  0.00    +0.260 C 
ATOM      7  O   UNL     1     -34.347  11.847 -14.833  0.00  0.00    -0.332 OA
BRANCH   3   8
ATOM      8  O   UNL     1     -35.587  14.309 -13.918  0.00  0.00    -0.384 OA
ATOM      9  H   UNL     1     -34.989  14.878 -13.368  0.00  0.00    +0.210 HD
ENDBRANCH   3   8
BRANCH   4  10
ATOM     10  O   UNL     1     -33.397  15.864 -14.482  0.00  0.00    -0.386 OA
ATOM     11  H   UNL     1     -32.802  16.409 -15.062  0.00  0.00    +0.210 HD
ENDBRANCH   4  10
BRANCH   5  12
ATOM     12  O   UNL     1     -31.335  13.865 -14.349  0.00  0.00    -0.386 OA
ATOM     13  H   UNL     1     -30.927  13.558 -13.496  0.00  0.00    +0.210 HD
ENDBRANCH   5  12
BRANCH   6  14
ATOM     14  C   UNL     1     -32.237  11.136 -14.017  0.00  0.00    +0.337 C 
ATOM     15  O   UNL     1     -32.779  10.652 -12.987  0.00  0.00    -0.248 OA
BRANCH  14  16
ATOM     16  O   UNL     1     -30.948  10.748 -14.371  0.00  0.00    -0.479 OA
ATOM     17  H   UNL     1     -30.504  11.120 -15.203  0.00  0.00    +0.295 HD
ENDBRANCH  14  16
ENDBRANCH   6  14
ENDBRANCH   1   2
BRANCH   1  21
ATOM     18  C   UNL     1     -37.485  10.029 -18.566  0.00  0.00    +0.280 C 
ATOM     19  C   UNL     1     -36.045   9.456 -18.574  0.00  0.00    +0.201 C 
ATOM     20  C   UNL     1     -35.088  10.345 -17.750  0.00  0.00    +0.180 C 
ATOM     21  C   UNL     1     -35.544  11.812 -17.802  0.00  0.00    +0.192 C 
ATOM     22  C   UNL     1     -36.989  11.904 -17.220  0.00  0.00    +0.260 C 
ATOM     23  O   UNL     1     -37.758  10.712 -17.354  0.00  0.00    -0.332 OA
BRANCH  18  24
ATOM     24  O   UNL     1     -38.418   8.995 -18.744  0.00  0.00    -0.365 OA
ATOM     25  H   UNL     1     -39.260   9.280 -18.302  0.00  0.00    +0.213 HD
ENDBRANCH  18  24
BRANCH  19  26
ATOM     26  O   UNL     1     -35.589   9.355 -19.901  0.00  0.00    -0.384 OA
ATOM     27  H   UNL     1     -35.878  10.183 -20.366  0.00  0.00    +0.210 HD
ENDBRANCH  19  26
BRANCH  20  28
ATOM     28  O   UNL     1     -33.774  10.222 -18.236  0.00  0.00    -0.386 OA
ATOM     29  H   UNL     1     -33.166  10.337 -17.460  0.00  0.00    +0.210 HD
ENDBRANCH  20  28
BRANCH  22  30
ATOM     30  C   UNL     1     -37.754  13.078 -17.770  0.00  0.00    +0.337 C 
ATOM     31  O   UNL     1     -38.993  12.977 -17.979  0.00  0.00    -0.248 OA
BRANCH  30  32
ATOM     32  O   UNL     1     -37.100  14.269 -18.072  0.00  0.00    -0.479 OA
ATOM     33  H   UNL     1     -36.331  14.599 -17.502  0.00  0.00    +0.295 HD
ENDBRANCH  30  32
ENDBRANCH  22  30
ENDBRANCH   1  21
TORSDOF 12
ENDMDL
MODEL 2
REMARK VINA RESULT:    -7.282      1.010      2.786
REMARK INTER + INTRA:         -11.804
REMARK INTER:                 -10.516
REMARK INTRA:                  -1.289
REMARK UNBOUND:                -1.116
REMARK  Name = BEM
REMARK  12 active torsions:
REMARK  status: ('A' for Active; 'I' for Inactive)
REMARK    1  A    between atoms: C_1  and  O_20
REMARK    2  A    between atoms: C_2  and  O_3
REMARK    3  A    between atoms: C_4  and  O_5
REMARK    4  A    between atoms: C_6  and  O_7
REMARK    5  A    between atoms: C_8  and  C_10
REMARK    6  A    between atoms: C_10  and  O_11
REMARK    7  A    between atoms: C_13  and  O_14
REMARK    8  A    between atoms: C_15  and  O_16
REMARK    9  A    between atoms: C_17  and  O_18
REMARK   10  A    between atoms: C_19  and  O_20
REMARK   11  A    between atoms: C_21  and  C_23
REMARK   12  A    between atoms: C_23  and  O_25
REMARK                            x       y       z     vdW  Elec       q    Type
REMARK                         _______ _______ _______ _____ _____    ______ ____
ROOT
ATOM      1  O   UNL     1     -34.879  12.852 -16.600  0.00  0.00    -0.340 OA
ENDROOT
BRANCH   1   2
ATOM      2  C   UNL     1     -35.084  13.083 -15.212  0.00  0.00    +0.283 C 
ATOM      3  C   UNL     1     -34.819  14.563 -14.850  0.00  0.00    +0.201 C 
ATOM      4  C   UNL     1     -33.327  14.895 -15.020  0.00  0.00    +0.179 C 
ATOM      5  C   UNL     1     -32.464  13.866 -14.273  0.00  0.00    +0.185 C 
ATOM      6  C   UNL     1     -32.882  12.441 -14.693  0.00  0.00    +0.260 C 
ATOM      7  O   UNL     1     -34.261  12.219 -14.444  0.00  0.00    -0.332 OA
BRANCH   3   8
ATOM      8  O   UNL     1     -35.206  14.806 -13.521  0.00  0.00    -0.384 OA
ATOM      9  H   UNL     1     -34.967  15.748 -13.319  0.00  0.00    +0.210 HD
ENDBRANCH   3   8
BRANCH   4  10
ATOM     10  O   UNL     1     -33.056  16.182 -14.530  0.00  0.00    -0.386 OA
ATOM     11  H   UNL     1     -33.637  16.314 -13.735  0.00  0.00    +0.210 HD
ENDBRANCH   4  10
BRANCH   5  12
ATOM     12  O   UNL     1     -31.108  14.068 -14.582  0.00  0.00    -0.386 OA
ATOM     13  H   UNL     1     -30.689  13.170 -14.644  0.00  0.00    +0.210 HD
ENDBRANCH   5  12
BRANCH   6  14
ATOM     14  C   UNL     1     -32.087  11.427 -13.922  0.00  0.00    +0.337 C 
ATOM     15  O   UNL     1     -32.345  11.210 -12.707  0.00  0.00    -0.248 OA
BRANCH  14  16
ATOM     16  O   UNL     1     -31.041  10.751 -14.542  0.00  0.00    -0.479 OA
ATOM     17  H   UNL     1     -30.715   9.860 -14.185  0.00  0.00    +0.295 HD
ENDBRANCH  14  16
ENDBRANCH   6  14
ENDBRANCH   1   2
BRANCH   1  21
ATOM     18  C   UNL     1     -36.231   9.508 -18.595  0.00  0.00    +0.280 C 
ATOM     19  C   UNL     1     -37.286  10.639 -18.477  0.00  0.00    +0.201 C 
ATOM     20  C   UNL     1     -36.644  11.946 -17.962  0.00  0.00    +0.180 C 
ATOM     21  C   UNL     1     -35.458  11.631 -17.036  0.00  0.00    +0.192 C 
ATOM     22  C   UNL     1     -34.407  10.804 -17.839  0.00  0.00    +0.260 C 
ATOM     23  O   UNL     1     -34.951  10.033 -18.907  0.00  0.00    -0.332 OA
BRANCH  18  24
ATOM     24  O   UNL     1     -36.617   8.589 -19.583  0.00  0.00    -0.365 OA
ATOM     25  H   UNL     1     -36.002   7.812 -19.517  0.00  0.00    +0.213 HD
ENDBRANCH  18  24
BRANCH  19  26
ATOM     26  O   UNL     1     -38.314  10.230 -17.609  0.00  0.00    -0.384 OA
ATOM     27  H   UNL     1     -39.109  10.044 -18.174  0.00  0.00    +0.210 HD
ENDBRANCH  19  26
BRANCH  20  28
ATOM     28  O   UNL     1     -37.602  12.722 -17.286  0.00  0.00    -0.386 OA
ATOM     29  H   UNL     1     -37.198  12.994 -16.421  0.00  0.00    +0.210 HD
ENDBRANCH  20  28
BRANCH  22  30
ATOM     30  C   UNL     1     -33.564   9.931 -16.948  0.00  0.00    +0.337 C 
ATOM     31  O   UNL     1     -32.340   9.769 -17.205  0.00  0.00    -0.248 OA
BRANCH  30  32
ATOM     32  O   UNL     1     -34.129   9.280 -15.856  0.00  0.00    -0.479 OA
ATOM     33  H   UNL     1     -34.468   9.803 -15.058  0.00  0.00    +0.295 HD
ENDBRANCH  30  32
ENDBRANCH  22  30
ENDBRANCH   1  21
TORSDOF 12
ENDMDL
MODEL 3
REMARK VINA RESULT:    -7.028      1.355      2.943
REMARK INTER + INTRA:         -11.431
REMARK INTER:                  -9.778
REMARK INTRA:                  -1.653
REMARK UNBOUND:                -1.116
REMARK  Name = BEM
REMARK  12 active torsions:
REMARK  status: ('A' for Active; 'I' for Inactive)
REMARK    1  A    between atoms: C_1  and  O_20
REMARK    2  A    between atoms: C_2  and  O_3
REMARK    3  A    between atoms: C_4  and  O_5
REMARK    4  A    between atoms: C_6  and  O_7
REMARK    5  A    between atoms: C_8  and  C_10
REMARK    6  A    between atoms: C_10  and  O_11
REMARK    7  A    between atoms: C_13  and  O_14
REMARK    8  A    between atoms: C_15  and  O_16
REMARK    9  A    between atoms: C_17  and  O_18
REMARK   10  A    between atoms: C_19  and  O_20
REMARK   11  A    between atoms: C_21  and  C_23
REMARK   12  A    between atoms: C_23  and  O_25
REMARK                            x       y       z     vdW  Elec       q    Type
REMARK                         _______ _______ _______ _____ _____    ______ ____
ROOT
ATOM      1  O   UNL     1     -35.562  11.203 -15.872  0.00  0.00    -0.340 OA
ENDROOT
BRANCH   1   2
ATOM      2  C   UNL     1     -34.246  11.656 -16.160  0.00  0.00    +0.283 C 
ATOM      3  C   UNL     1     -33.253  11.217 -15.058  0.00  0.00    +0.201 C 
ATOM      4  C   UNL     1     -33.569  11.940 -13.737  0.00  0.00    +0.179 C 
ATOM      5  C   UNL     1     -33.668  13.456 -13.971  0.00  0.00    +0.185 C 
ATOM      6  C   UNL     1     -34.645  13.735 -15.132  0.00  0.00    +0.260 C 
ATOM      7  O   UNL     1     -34.236  13.067 -16.316  0.00  0.00    -0.332 OA
BRANCH   3   8
ATOM      8  O   UNL     1     -31.938  11.512 -15.455  0.00  0.00    -0.384 OA
ATOM      9  H   UNL     1     -31.785  11.041 -16.315  0.00  0.00    +0.210 HD
ENDBRANCH   3   8
BRANCH   4  10
ATOM     10  O   UNL     1     -32.569  11.674 -12.787  0.00  0.00    -0.386 OA
ATOM     11  H   UNL     1     -32.348  12.541 -12.355  0.00  0.00    +0.210 HD
ENDBRANCH   4  10
BRANCH   5  12
ATOM     12  O   UNL     1     -34.133  14.087 -12.805  0.00  0.00    -0.386 OA
ATOM     13  H   UNL     1     -34.287  13.373 -12.132  0.00  0.00    +0.210 HD
ENDBRANCH   5  12
BRANCH   6  14
ATOM     14  C   UNL     1     -34.702  15.208 -15.410  0.00  0.00    +0.337 C 
ATOM     15  O   UNL     1     -35.609  15.680 -16.149  0.00  0.00    -0.248 OA
BRANCH  14  16
ATOM     16  O   UNL     1     -33.731  16.051 -14.878  0.00  0.00    -0.479 OA
ATOM     17  H   UNL     1     -32.769  15.996 -15.190  0.00  0.00    +0.295 HD
ENDBRANCH  14  16
ENDBRANCH   6  14
ENDBRANCH   1   2
BRANCH   1  21
ATOM     18  C   UNL     1     -38.289  10.095 -18.757  0.00  0.00    +0.280 C 
ATOM     19  C   UNL     1     -37.318   8.960 -18.341  0.00  0.00    +0.201 C 
ATOM     20  C   UNL     1     -36.508   9.354 -17.087  0.00  0.00    +0.180 C 
ATOM     21  C   UNL     1     -36.289  10.875 -17.047  0.00  0.00    +0.192 C 
ATOM     22  C   UNL     1     -37.682  11.577 -17.021  0.00  0.00    +0.260 C 
ATOM     23  O   UNL     1     -38.733  10.829 -17.628  0.00  0.00    -0.332 OA
BRANCH  18  24
ATOM     24  O   UNL     1     -39.395   9.560 -19.436  0.00  0.00    -0.365 OA
ATOM     25  H   UNL     1     -40.048   9.267 -18.747  0.00  0.00    +0.213 HD
ENDBRANCH  18  24
BRANCH  19  26
ATOM     26  O   UNL     1     -36.449   8.674 -19.409  0.00  0.00    -0.384 OA
ATOM     27  H   UNL     1     -36.877   9.032 -20.230  0.00  0.00    +0.210 HD
ENDBRANCH  19  26
BRANCH  20  28
ATOM     28  O   UNL     1     -35.274   8.679 -17.077  0.00  0.00    -0.386 OA
ATOM     29  H   UNL     1     -34.680   9.170 -16.451  0.00  0.00    +0.210 HD
ENDBRANCH  20  28
BRANCH  22  30
ATOM     30  C   UNL     1     -37.635  12.965 -17.600  0.00  0.00    +0.337 C 
ATOM     31  O   UNL     1     -38.692  13.648 -17.681  0.00  0.00    -0.248 OA
BRANCH  30  32
ATOM     32  O   UNL     1     -36.437  13.494 -18.071  0.00  0.00    -0.479 OA
ATOM     33  H   UNL     1     -35.872  12.986 -18.741  0.00  0.00    +0.295 HD
ENDBRANCH  30  32
ENDBRANCH  22  30
ENDBRANCH   1  21
TORSDOF 12
ENDMDL
MODEL 4
REMARK VINA RESULT:    -6.961      1.231      6.365
REMARK INTER + INTRA:         -11.333
REMARK INTER:                 -10.738
REMARK INTRA:                  -0.595
REMARK UNBOUND:                -1.116
REMARK  Name = BEM
REMARK  12 active torsions:
REMARK  status: ('A' for Active; 'I' for Inactive)
REMARK    1  A    between atoms: C_1  and  O_20
REMARK    2  A    between atoms: C_2  and  O_3
REMARK    3  A    between atoms: C_4  and  O_5
REMARK    4  A    between atoms: C_6  and  O_7
REMARK    5  A    between atoms: C_8  and  C_10
REMARK    6  A    between atoms: C_10  and  O_11
REMARK    7  A    between atoms: C_13  and  O_14
REMARK    8  A    between atoms: C_15  and  O_16
REMARK    9  A    between atoms: C_17  and  O_18
REMARK   10  A    between atoms: C_19  and  O_20
REMARK   11  A    between atoms: C_21  and  C_23
REMARK   12  A    between atoms: C_23  and  O_25
REMARK                            x       y       z     vdW  Elec       q    Type
REMARK                         _______ _______ _______ _____ _____    ______ ____
ROOT
ATOM      1  O   UNL     1     -35.283  12.347 -15.796  0.00  0.00    -0.340 OA
ENDROOT
BRANCH   1   2
ATOM      2  C   UNL     1     -35.857  12.722 -17.041  0.00  0.00    +0.283 C 
ATOM      3  C   UNL     1     -37.402  12.682 -16.976  0.00  0.00    +0.201 C 
ATOM      4  C   UNL     1     -37.890  11.232 -16.813  0.00  0.00    +0.179 C 
ATOM      5  C   UNL     1     -37.250  10.331 -17.880  0.00  0.00    +0.185 C 
ATOM      6  C   UNL     1     -35.719  10.523 -17.865  0.00  0.00    +0.260 C 
ATOM      7  O   UNL     1     -35.372  11.882 -18.078  0.00  0.00    -0.332 OA
BRANCH   3   8
ATOM      8  O   UNL     1     -37.943  13.232 -18.150  0.00  0.00    -0.384 OA
ATOM      9  H   UNL     1     -37.330  13.957 -18.438  0.00  0.00    +0.210 HD
ENDBRANCH   3   8
BRANCH   4  10
ATOM     10  O   UNL     1     -39.289  11.175 -16.925  0.00  0.00    -0.386 OA
ATOM     11  H   UNL     1     -39.643  12.006 -16.510  0.00  0.00    +0.210 HD
ENDBRANCH   4  10
BRANCH   5  12
ATOM     12  O   UNL     1     -37.557   8.986 -17.613  0.00  0.00    -0.386 OA
ATOM     13  H   UNL     1     -37.825   8.574 -18.476  0.00  0.00    +0.210 HD
ENDBRANCH   5  12
BRANCH   6  14
ATOM     14  C   UNL     1     -35.089   9.693 -18.945  0.00  0.00    +0.337 C 
ATOM     15  O   UNL     1     -33.893   9.307 -18.832  0.00  0.00    -0.248 OA
BRANCH  14  16
ATOM     16  O   UNL     1     -35.814   9.380 -20.090  0.00  0.00    -0.479 OA
ATOM     17  H   UNL     1     -36.801   9.601 -20.156  0.00  0.00    +0.295 HD
ENDBRANCH  14  16
ENDBRANCH   6  14
ENDBRANCH   1   2
BRANCH   1  21
ATOM     18  C   UNL     1     -32.013  14.266 -14.180  0.00  0.00    +0.280 C 
ATOM     19  C   UNL     1     -33.201  15.210 -14.500  0.00  0.00    +0.201 C 
ATOM     20  C   UNL     1     -34.472  14.405 -14.849  0.00  0.00    +0.180 C 
ATOM     21  C   UNL     1     -34.094  13.069 -15.510  0.00  0.00    +0.192 C 
ATOM     22  C   UNL     1     -33.207  12.257 -14.516  0.00  0.00    +0.260 C 
ATOM     23  O   UNL     1     -32.465  13.055 -13.598  0.00  0.00    -0.332 OA
BRANCH  18  24
ATOM     24  O   UNL     1     -31.114  14.900 -13.308  0.00  0.00    -0.365 OA
ATOM     25  H   UNL     1     -31.643  15.252 -12.545  0.00  0.00    +0.213 HD
ENDBRANCH  18  24
BRANCH  19  26
ATOM     26  O   UNL     1     -32.853  16.053 -15.570  0.00  0.00    -0.384 OA
ATOM     27  H   UNL     1     -33.660  16.139 -16.141  0.00  0.00    +0.210 HD
ENDBRANCH  19  26
BRANCH  20  28
ATOM     28  O   UNL     1     -35.302  15.157 -15.700  0.00  0.00    -0.386 OA
ATOM     29  H   UNL     1     -35.884  15.714 -15.119  0.00  0.00    +0.210 HD
ENDBRANCH  20  28
BRANCH  22  30
ATOM     30  C   UNL     1     -32.291  11.293 -15.222  0.00  0.00    +0.337 C 
ATOM     31  O   UNL     1     -32.526  10.966 -16.418  0.00  0.00    -0.248 OA
BRANCH  30  32
ATOM     32  O   UNL     1     -31.201  10.740 -14.559  0.00  0.00    -0.479 OA
ATOM     33  H   UNL     1     -31.156   9.746 -14.371  0.00  0.00    +0.295 HD
ENDBRANCH  30  32
ENDBRANCH  22  30
ENDBRANCH   1  21
TORSDOF 12
ENDMDL
MODEL 5
REMARK VINA RESULT:    -6.824      1.605      3.916
REMARK INTER + INTRA:         -11.133
REMARK INTER:                 -10.304
REMARK INTRA:                  -0.828
REMARK UNBOUND:                -1.116
REMARK  Name = BEM
REMARK  12 active torsions:
REMARK  status: ('A' for Active; 'I' for Inactive)
REMARK    1  A    between atoms: C_1  and  O_20
REMARK    2  A    between atoms: C_2  and  O_3
REMARK    3  A    between atoms: C_4  and  O_5
REMARK    4  A    between atoms: C_6  and  O_7
REMARK    5  A    between atoms: C_8  and  C_10
REMARK    6  A    between atoms: C_10  and  O_11
REMARK    7  A    between atoms: C_13  and  O_14
REMARK    8  A    between atoms: C_15  and  O_16
REMARK    9  A    between atoms: C_17  and  O_18
REMARK   10  A    between atoms: C_19  and  O_20
REMARK   11  A    between atoms: C_21  and  C_23
REMARK   12  A    between atoms: C_23  and  O_25
REMARK                            x       y       z     vdW  Elec       q    Type
REMARK                         _______ _______ _______ _____ _____    ______ ____
ROOT
ATOM      1  O   UNL     1     -35.300  10.578 -15.698  0.00  0.00    -0.340 OA
ENDROOT
BRANCH   1   2
ATOM      2  C   UNL     1     -34.325  11.223 -16.507  0.00  0.00    +0.283 C 
ATOM      3  C   UNL     1     -32.919  10.626 -16.265  0.00  0.00    +0.201 C 
ATOM      4  C   UNL     1     -32.436  10.959 -14.842  0.00  0.00    +0.179 C 
ATOM      5  C   UNL     1     -32.570  12.466 -14.573  0.00  0.00    +0.185 C 
ATOM      6  C   UNL     1     -34.004  12.924 -14.914  0.00  0.00    +0.260 C 
ATOM      7  O   UNL     1     -34.330  12.621 -16.261  0.00  0.00    -0.332 OA
BRANCH   3   8
ATOM      8  O   UNL     1     -32.012  11.147 -17.203  0.00  0.00    -0.384 OA
ATOM      9  H   UNL     1     -32.534  11.360 -18.020  0.00  0.00    +0.210 HD
ENDBRANCH   3   8
BRANCH   4  10
ATOM     10  O   UNL     1     -31.098  10.568 -14.680  0.00  0.00    -0.386 OA
ATOM     11  H   UNL     1     -30.916  10.570 -13.703  0.00  0.00    +0.210 HD
ENDBRANCH   4  10
BRANCH   5  12
ATOM     12  O   UNL     1     -32.302  12.733 -13.220  0.00  0.00    -0.386 OA
ATOM     13  H   UNL     1     -32.196  11.855 -12.768  0.00  0.00    +0.210 HD
ENDBRANCH   5  12
BRANCH   6  14
ATOM     14  C   UNL     1     -34.128  14.406 -14.714  0.00  0.00    +0.337 C 
ATOM     15  O   UNL     1     -33.165  15.168 -15.001  0.00  0.00    -0.248 OA
BRANCH  14  16
ATOM     16  O   UNL     1     -35.297  14.937 -14.178  0.00  0.00    -0.479 OA
ATOM     17  H   UNL     1     -35.319  15.290 -13.228  0.00  0.00    +0.295 HD
ENDBRANCH  14  16
ENDBRANCH   6  14
ENDBRANCH   1   2
BRANCH   1  21
ATOM     18  C   UNL     1     -38.682  10.777 -18.045  0.00  0.00    +0.280 C 
ATOM     19  C   UNL     1     -38.884  11.317 -16.605  0.00  0.00    +0.201 C 
ATOM     20  C   UNL     1     -37.532  11.459 -15.870  0.00  0.00    +0.180 C 
ATOM     21  C   UNL     1     -36.536  10.404 -16.376  0.00  0.00    +0.192 C 
ATOM     22  C   UNL     1     -36.331  10.608 -17.909  0.00  0.00    +0.260 C 
ATOM     23  O   UNL     1     -37.440  11.201 -18.580  0.00  0.00    -0.332 OA
BRANCH  18  24
ATOM     24  O   UNL     1     -39.726  11.215 -18.875  0.00  0.00    -0.365 OA
ATOM     25  H   UNL     1     -39.339  11.374 -19.775  0.00  0.00    +0.213 HD
ENDBRANCH  18  24
BRANCH  19  26
ATOM     26  O   UNL     1     -39.731  10.448 -15.895  0.00  0.00    -0.384 OA
ATOM     27  H   UNL     1     -40.327  11.017 -15.342  0.00  0.00    +0.210 HD
ENDBRANCH  19  26
BRANCH  20  28
ATOM     28  O   UNL     1     -37.721  11.332 -14.483  0.00  0.00    -0.386 OA
ATOM     29  H   UNL     1     -36.938  10.835 -14.128  0.00  0.00    +0.210 HD
ENDBRANCH  20  28
BRANCH  22  30
ATOM     30  C   UNL     1     -35.922   9.338 -18.607  0.00  0.00    +0.337 C 
ATOM     31  O   UNL     1     -36.059   8.229 -18.022  0.00  0.00    -0.248 OA
BRANCH  30  32
ATOM     32  O   UNL     1     -35.371   9.380 -19.884  0.00  0.00    -0.479 OA
ATOM     33  H   UNL     1     -34.397   9.152 -20.036  0.00  0.00    +0.295 HD
ENDBRANCH  30  32
ENDBRANCH  22  30
ENDBRANCH   1  21
TORSDOF 12
ENDMDL
MODEL 6
REMARK VINA RESULT:    -6.777      1.480      5.912
REMARK INTER + INTRA:         -11.063
REMARK INTER:                  -9.726
REMARK INTRA:                  -1.337
REMARK UNBOUND:                -1.116
REMARK  Name = BEM
REMARK  12 active torsions:
REMARK  status: ('A' for Active; 'I' for Inactive)
REMARK    1  A    between atoms: C_1  and  O_20
REMARK    2  A    between atoms: C_2  and  O_3
REMARK    3  A    between atoms: C_4  and  O_5
REMARK    4  A    between atoms: C_6  and  O_7
REMARK    5  A    between atoms: C_8  and  C_10
REMARK    6  A    between atoms: C_10  and  O_11
REMARK    7  A    between atoms: C_13  and  O_14
REMARK    8  A    between atoms: C_15  and  O_16
REMARK    9  A    between atoms: C_17  and  O_18
REMARK   10  A    between atoms: C_19  and  O_20
REMARK   11  A    between atoms: C_21  and  C_23
REMARK   12  A    between atoms: C_23  and  O_25
REMARK                            x       y       z     vdW  Elec       q    Type
REMARK                         _______ _______ _______ _____ _____    ______ ____
ROOT
ATOM      1  O   UNL     1     -35.706  13.523 -15.902  0.00  0.00    -0.340 OA
ENDROOT
BRANCH   1   2
ATOM      2  C   UNL     1     -35.940  13.928 -17.244  0.00  0.00    +0.283 C 
ATOM      3  C   UNL     1     -36.837  15.187 -17.296  0.00  0.00    +0.201 C 
ATOM      4  C   UNL     1     -38.255  14.852 -16.802  0.00  0.00    +0.179 C 
ATOM      5  C   UNL     1     -38.800  13.621 -17.543  0.00  0.00    +0.185 C 
ATOM      6  C   UNL     1     -37.775  12.471 -17.454  0.00  0.00    +0.260 C 
ATOM      7  O   UNL     1     -36.519  12.864 -17.985  0.00  0.00    -0.332 OA
BRANCH   3   8
ATOM      8  O   UNL     1     -36.901  15.674 -18.613  0.00  0.00    -0.384 OA
ATOM      9  H   UNL     1     -37.221  14.926 -19.181  0.00  0.00    +0.210 HD
ENDBRANCH   3   8
BRANCH   4  10
ATOM     10  O   UNL     1     -39.113  15.944 -17.009  0.00  0.00    -0.386 OA
ATOM     11  H   UNL     1     -38.590  16.762 -16.796  0.00  0.00    +0.210 HD
ENDBRANCH   4  10
BRANCH   5  12
ATOM     12  O   UNL     1     -40.013  13.214 -16.961  0.00  0.00    -0.386 OA
ATOM     13  H   UNL     1     -40.724  13.373 -17.636  0.00  0.00    +0.210 HD
ENDBRANCH   5  12
BRANCH   6  14
ATOM     14  C   UNL     1     -38.270  11.283 -18.227  0.00  0.00    +0.337 C 
ATOM     15  O   UNL     1     -39.398  11.318 -18.789  0.00  0.00    -0.248 OA
BRANCH  14  16
ATOM     16  O   UNL     1     -37.495  10.129 -18.295  0.00  0.00    -0.479 OA
ATOM     17  H   UNL     1     -36.543  10.163 -18.638  0.00  0.00    +0.295 HD
ENDBRANCH  14  16
ENDBRANCH   6  14
ENDBRANCH   1   2
BRANCH   1  21
ATOM     18  C   UNL     1     -32.242  11.609 -14.748  0.00  0.00    +0.280 C 
ATOM     19  C   UNL     1     -32.407  13.028 -14.145  0.00  0.00    +0.201 C 
ATOM     20  C   UNL     1     -33.828  13.578 -14.399  0.00  0.00    +0.180 C 
ATOM     21  C   UNL     1     -34.393  13.015 -15.713  0.00  0.00    +0.192 C 
ATOM     22  C   UNL     1     -34.436  11.459 -15.609  0.00  0.00    +0.260 C 
ATOM     23  O   UNL     1     -33.469  10.898 -14.725  0.00  0.00    -0.332 OA
BRANCH  18  24
ATOM     24  O   UNL     1     -31.269  10.891 -14.036  0.00  0.00    -0.365 OA
ATOM     25  H   UNL     1     -31.361  11.143 -13.079  0.00  0.00    +0.213 HD
ENDBRANCH  18  24
BRANCH  19  26
ATOM     26  O   UNL     1     -31.448  13.889 -14.708  0.00  0.00    -0.384 OA
ATOM     27  H   UNL     1     -31.194  14.537 -14.000  0.00  0.00    +0.210 HD
ENDBRANCH  19  26
BRANCH  20  28
ATOM     28  O   UNL     1     -33.803  14.983 -14.436  0.00  0.00    -0.386 OA
ATOM     29  H   UNL     1     -32.964  15.246 -14.898  0.00  0.00    +0.210 HD
ENDBRANCH  20  28
BRANCH  22  30
ATOM     30  C   UNL     1     -34.355  10.793 -16.956  0.00  0.00    +0.337 C 
ATOM     31  O   UNL     1     -34.815   9.629 -17.110  0.00  0.00    -0.248 OA
BRANCH  30  32
ATOM     32  O   UNL     1     -33.753  11.441 -18.030  0.00  0.00    -0.479 OA
ATOM     33  H   UNL     1     -32.748  11.416 -18.155  0.00  0.00    +0.295 HD
ENDBRANCH  30  32
ENDBRANCH  22  30
ENDBRANCH   1  21
TORSDOF 12
ENDMDL
MODEL 7
REMARK VINA RESULT:    -6.641      1.754      3.139
REMARK INTER + INTRA:         -10.863
REMARK INTER:                  -9.246
REMARK INTRA:                  -1.617
REMARK UNBOUND:                -1.116
REMARK  Name = BEM
REMARK  12 active torsions:
REMARK  status: ('A' for Active; 'I' for Inactive)
REMARK    1  A    between atoms: C_1  and  O_20
REMARK    2  A    between atoms: C_2  and  O_3
REMARK    3  A    between atoms: C_4  and  O_5
REMARK    4  A    between atoms: C_6  and  O_7
REMARK    5  A    between atoms: C_8  and  C_10
REMARK    6  A    between atoms: C_10  and  O_11
REMARK    7  A    between atoms: C_13  and  O_14
REMARK    8  A    between atoms: C_15  and  O_16
REMARK    9  A    between atoms: C_17  and  O_18
REMARK   10  A    between atoms: C_19  and  O_20
REMARK   11  A    between atoms: C_21  and  C_23
REMARK   12  A    between atoms: C_23  and  O_25
REMARK                            x       y       z     vdW  Elec       q    Type
REMARK                         _______ _______ _______ _____ _____    ______ ____
ROOT
ATOM      1  O   UNL     1     -35.094  10.519 -15.753  0.00  0.00    -0.340 OA
ENDROOT
BRANCH   1   2
ATOM      2  C   UNL     1     -34.340  11.724 -15.760  0.00  0.00    +0.283 C 
ATOM      3  C   UNL     1     -33.051  11.578 -14.919  0.00  0.00    +0.201 C 
ATOM      4  C   UNL     1     -33.402  11.420 -13.429  0.00  0.00    +0.179 C 
ATOM      5  C   UNL     1     -34.358  12.538 -12.985  0.00  0.00    +0.185 C 
ATOM      6  C   UNL     1     -35.561  12.599 -13.950  0.00  0.00    +0.260 C 
ATOM      7  O   UNL     1     -35.134  12.802 -15.288  0.00  0.00    -0.332 OA
BRANCH   3   8
ATOM      8  O   UNL     1     -32.237  12.711 -15.092  0.00  0.00    -0.384 OA
ATOM      9  H   UNL     1     -31.906  12.968 -14.192  0.00  0.00    +0.210 HD
ENDBRANCH   3   8
BRANCH   4  10
ATOM     10  O   UNL     1     -32.236  11.460 -12.648  0.00  0.00    -0.386 OA
ATOM     11  H   UNL     1     -31.843  12.364 -12.766  0.00  0.00    +0.210 HD
ENDBRANCH   4  10
BRANCH   5  12
ATOM     12  O   UNL     1     -34.816  12.282 -11.681  0.00  0.00    -0.386 OA
ATOM     13  H   UNL     1     -34.059  11.872 -11.185  0.00  0.00    +0.210 HD
ENDBRANCH   5  12
BRANCH   6  14
ATOM     14  C   UNL     1     -36.471  13.727 -13.562  0.00  0.00    +0.337 C 
ATOM     15  O   UNL     1     -36.197  14.450 -12.566  0.00  0.00    -0.248 OA
BRANCH  14  16
ATOM     16  O   UNL     1     -37.638  13.955 -14.284  0.00  0.00    -0.479 OA
ATOM     17  H   UNL     1     -38.497  14.216 -13.814  0.00  0.00    +0.295 HD
ENDBRANCH  14  16
ENDBRANCH   6  14
ENDBRANCH   1   2
BRANCH   1  21
ATOM     18  C   UNL     1     -37.426   9.251 -18.906  0.00  0.00    +0.280 C 
ATOM     19  C   UNL     1     -35.925   8.888 -19.049  0.00  0.00    +0.201 C 
ATOM     20  C   UNL     1     -35.162   9.152 -17.732  0.00  0.00    +0.180 C 
ATOM     21  C   UNL     1     -35.805  10.319 -16.966  0.00  0.00    +0.192 C 
ATOM     22  C   UNL     1     -37.289   9.952 -16.656  0.00  0.00    +0.260 C 
ATOM     23  O   UNL     1     -37.879   9.041 -17.580  0.00  0.00    -0.332 OA
BRANCH  18  24
ATOM     24  O   UNL     1     -38.195   8.483 -19.794  0.00  0.00    -0.365 OA
ATOM     25  H   UNL     1     -38.685   7.810 -19.251  0.00  0.00    +0.213 HD
ENDBRANCH  18  24
BRANCH  19  26
ATOM     26  O   UNL     1     -35.360   9.640 -20.095  0.00  0.00    -0.384 OA
ATOM     27  H   UNL     1     -35.558  10.594 -19.901  0.00  0.00    +0.210 HD
ENDBRANCH  19  26
BRANCH  20  28
ATOM     28  O   UNL     1     -33.810   9.427 -18.004  0.00  0.00    -0.386 OA
ATOM     29  H   UNL     1     -33.532   8.820 -18.739  0.00  0.00    +0.210 HD
ENDBRANCH  20  28
BRANCH  22  30
ATOM     30  C   UNL     1     -38.160  11.170 -16.502  0.00  0.00    +0.337 C 
ATOM     31  O   UNL     1     -39.366  11.040 -16.155  0.00  0.00    -0.248 OA
BRANCH  30  32
ATOM     32  O   UNL     1     -37.653  12.439 -16.763  0.00  0.00    -0.479 OA
ATOM     33  H   UNL     1     -37.902  13.229 -16.180  0.00  0.00    +0.295 HD
ENDBRANCH  30  32
ENDBRANCH  22  30
ENDBRANCH   1  21
TORSDOF 12
ENDMDL
MODEL 8
REMARK VINA RESULT:    -6.562      1.406      6.441
REMARK INTER + INTRA:         -10.748
REMARK INTER:                  -9.449
REMARK INTRA:                  -1.299
REMARK UNBOUND:                -1.116
REMARK  Name = BEM
REMARK  12 active torsions:
REMARK  status: ('A' for Active; 'I' for Inactive)
REMARK    1  A    between atoms: C_1  and  O_20
REMARK    2  A    between atoms: C_2  and  O_3
REMARK    3  A    between atoms: C_4  and  O_5
REMARK    4  A    between atoms: C_6  and  O_7
REMARK    5  A    between atoms: C_8  and  C_10
REMARK    6  A    between atoms: C_10  and  O_11
REMARK    7  A    between atoms: C_13  and  O_14
REMARK    8  A    between atoms: C_15  and  O_16
REMARK    9  A    between atoms: C_17  and  O_18
REMARK   10  A    between atoms: C_19  and  O_20
REMARK   11  A    between atoms: C_21  and  C_23
REMARK   12  A    between atoms: C_23  and  O_25
REMARK                            x       y       z     vdW  Elec       q    Type
REMARK                         _______ _______ _______ _____ _____    ______ ____
ROOT
ATOM      1  O   UNL     1     -36.312  11.696 -16.045  0.00  0.00    -0.340 OA
ENDROOT
BRANCH   1   2
ATOM      2  C   UNL     1     -36.826  12.180 -17.278  0.00  0.00    +0.283 C 
ATOM      3  C   UNL     1     -38.340  12.476 -17.172  0.00  0.00    +0.201 C 
ATOM      4  C   UNL     1     -39.126  11.167 -16.979  0.00  0.00    +0.179 C 
ATOM      5  C   UNL     1     -38.726  10.143 -18.053  0.00  0.00    +0.185 C 
ATOM      6  C   UNL     1     -37.190   9.999 -18.080  0.00  0.00    +0.260 C 
ATOM      7  O   UNL     1     -36.564  11.250 -18.318  0.00  0.00    -0.332 OA
BRANCH   3   8
ATOM      8  O   UNL     1     -38.783  13.124 -18.338  0.00  0.00    -0.384 OA
ATOM      9  H   UNL     1     -37.998  13.201 -18.939  0.00  0.00    +0.210 HD
ENDBRANCH   3   8
BRANCH   4  10
ATOM     10  O   UNL     1     -40.506  11.414 -17.054  0.00  0.00    -0.386 OA
ATOM     11  H   UNL     1     -40.815  11.597 -16.128  0.00  0.00    +0.210 HD
ENDBRANCH   4  10
BRANCH   5  12
ATOM     12  O   UNL     1     -39.309   8.897 -17.762  0.00  0.00    -0.386 OA
ATOM     13  H   UNL     1     -39.621   8.517 -18.625  0.00  0.00    +0.210 HD
ENDBRANCH   5  12
BRANCH   6  14
ATOM     14  C   UNL     1     -36.785   9.047 -19.167  0.00  0.00    +0.337 C 
ATOM     15  O   UNL     1     -37.327   7.912 -19.251  0.00  0.00    -0.248 OA
BRANCH  14  16
ATOM     16  O   UNL     1     -35.783   9.406 -20.063  0.00  0.00    -0.479 OA
ATOM     17  H   UNL     1     -35.618   8.862 -20.902  0.00  0.00    +0.295 HD
ENDBRANCH  14  16
ENDBRANCH   6  14
ENDBRANCH   1   2
BRANCH   1  21
ATOM     18  C   UNL     1     -32.927  13.189 -14.226  0.00  0.00    +0.280 C 
ATOM     19  C   UNL     1     -34.221  13.974 -13.888  0.00  0.00    +0.201 C 
ATOM     20  C   UNL     1     -35.475  13.218 -14.379  0.00  0.00    +0.180 C 
ATOM     21  C   UNL     1     -35.145  12.395 -15.634  0.00  0.00    +0.192 C 
ATOM     22  C   UNL     1     -34.016  11.378 -15.280  0.00  0.00    +0.260 C 
ATOM     23  O   UNL     1     -33.161  11.790 -14.217  0.00  0.00    -0.332 OA
BRANCH  18  24
ATOM     24  O   UNL     1     -31.916  13.503 -13.305  0.00  0.00    -0.365 OA
ATOM     25  H   UNL     1     -32.363  13.795 -12.467  0.00  0.00    +0.213 HD
ENDBRANCH  18  24
BRANCH  19  26
ATOM     26  O   UNL     1     -34.162  15.249 -14.479  0.00  0.00    -0.384 OA
ATOM     27  H   UNL     1     -35.048  15.672 -14.336  0.00  0.00    +0.210 HD
ENDBRANCH  19  26
BRANCH  20  28
ATOM     28  O   UNL     1     -36.514  14.127 -14.646  0.00  0.00    -0.386 OA
ATOM     29  H   UNL     1     -37.356  13.706 -14.331  0.00  0.00    +0.210 HD
ENDBRANCH  20  28
BRANCH  22  30
ATOM     30  C   UNL     1     -33.198  10.988 -16.482  0.00  0.00    +0.337 C 
ATOM     31  O   UNL     1     -32.061  10.465 -16.324  0.00  0.00    -0.248 OA
BRANCH  30  32
ATOM     32  O   UNL     1     -33.675  11.223 -17.768  0.00  0.00    -0.479 OA
ATOM     33  H   UNL     1     -34.098  12.110 -18.011  0.00  0.00    +0.295 HD
ENDBRANCH  30  32
ENDBRANCH  22  30
ENDBRANCH   1  21
TORSDOF 12
ENDMDL
MODEL 9
REMARK VINA RESULT:    -6.537      1.422      5.987
REMARK INTER + INTRA:         -10.710
REMARK INTER:                  -9.675
REMARK INTRA:                  -1.036
REMARK UNBOUND:                -1.116
REMARK  Name = BEM
REMARK  12 active torsions:
REMARK  status: ('A' for Active; 'I' for Inactive)
REMARK    1  A    between atoms: C_1  and  O_20
REMARK    2  A    between atoms: C_2  and  O_3
REMARK    3  A    between atoms: C_4  and  O_5
REMARK    4  A    between atoms: C_6  and  O_7
REMARK    5  A    between atoms: C_8  and  C_10
REMARK    6  A    between atoms: C_10  and  O_11
REMARK    7  A    between atoms: C_13  and  O_14
REMARK    8  A    between atoms: C_15  and  O_16
REMARK    9  A    between atoms: C_17  and  O_18
REMARK   10  A    between atoms: C_19  and  O_20
REMARK   11  A    between atoms: C_21  and  C_23
REMARK   12  A    between atoms: C_23  and  O_25
REMARK                            x       y       z     vdW  Elec       q    Type
REMARK                         _______ _______ _______ _____ _____    ______ ____
ROOT
ATOM      1  O   UNL     1     -36.007  11.160 -15.565  0.00  0.00    -0.340 OA
ENDROOT
BRANCH   1   2
ATOM      2  C   UNL     1     -36.230  11.845 -16.791  0.00  0.00    +0.283 C 
ATOM      3  C   UNL     1     -37.646  12.466 -16.831  0.00  0.00    +0.201 C 
ATOM      4  C   UNL     1     -38.713  11.359 -16.875  0.00  0.00    +0.179 C 
ATOM      5  C   UNL     1     -38.398  10.360 -18.000  0.00  0.00    +0.185 C 
ATOM      6  C   UNL     1     -36.939   9.874 -17.862  0.00  0.00    +0.260 C 
ATOM      7  O   UNL     1     -36.033  10.965 -17.888  0.00  0.00    -0.332 OA
BRANCH   3   8
ATOM      8  O   UNL     1     -37.774  13.289 -17.963  0.00  0.00    -0.384 OA
ATOM      9  H   UNL     1     -37.942  12.690 -18.736  0.00  0.00    +0.210 HD
ENDBRANCH   3   8
BRANCH   4  10
ATOM     10  O   UNL     1     -39.984  11.917 -17.084  0.00  0.00    -0.386 OA
ATOM     11  H   UNL     1     -39.840  12.851 -17.392  0.00  0.00    +0.210 HD
ENDBRANCH   4  10
BRANCH   5  12
ATOM     12  O   UNL     1     -39.268   9.260 -17.916  0.00  0.00    -0.386 OA
ATOM     13  H   UNL     1     -38.927   8.676 -17.189  0.00  0.00    +0.210 HD
ENDBRANCH   5  12
BRANCH   6  14
ATOM     14  C   UNL     1     -36.601   8.945 -18.991  0.00  0.00    +0.337 C 
ATOM     15  O   UNL     1     -37.199   7.841 -19.105  0.00  0.00    -0.248 OA
BRANCH  14  16
ATOM     16  O   UNL     1     -35.601   9.289 -19.895  0.00  0.00    -0.479 OA
ATOM     17  H   UNL     1     -35.750  10.019 -20.582  0.00  0.00    +0.295 HD
ENDBRANCH  14  16
ENDBRANCH   6  14
ENDBRANCH   1   2
BRANCH   1  21
ATOM     18  C   UNL     1     -32.440  12.838 -14.363  0.00  0.00    +0.280 C 
ATOM     19  C   UNL     1     -32.274  11.591 -15.270  0.00  0.00    +0.201 C 
ATOM     20  C   UNL     1     -33.624  11.174 -15.894  0.00  0.00    +0.180 C 
ATOM     21  C   UNL     1     -34.783  11.536 -14.952  0.00  0.00    +0.192 C 
ATOM     22  C   UNL     1     -34.764  13.077 -14.708  0.00  0.00    +0.260 C 
ATOM     23  O   UNL     1     -33.479  13.680 -14.836  0.00  0.00    -0.332 OA
BRANCH  18  24
ATOM     24  O   UNL     1     -31.237  13.560 -14.309  0.00  0.00    -0.365 OA
ATOM     25  H   UNL     1     -31.369  14.302 -13.663  0.00  0.00    +0.213 HD
ENDBRANCH  18  24
BRANCH  19  26
ATOM     26  O   UNL     1     -31.742  10.531 -14.514  0.00  0.00    -0.384 OA
ATOM     27  H   UNL     1     -32.513   9.996 -14.190  0.00  0.00    +0.210 HD
ENDBRANCH  19  26
BRANCH  20  28
ATOM     28  O   UNL     1     -33.624   9.795 -16.168  0.00  0.00    -0.386 OA
ATOM     29  H   UNL     1     -33.906   9.687 -17.113  0.00  0.00    +0.210 HD
ENDBRANCH  20  28
BRANCH  22  30
ATOM     30  C   UNL     1     -35.386  13.456 -13.391  0.00  0.00    +0.337 C 
ATOM     31  O   UNL     1     -36.104  14.490 -13.311  0.00  0.00    -0.248 OA
BRANCH  30  32
ATOM     32  O   UNL     1     -35.155  12.689 -12.254  0.00  0.00    -0.479 OA
ATOM     33  H   UNL     1     -35.246  11.681 -12.279  0.00  0.00    +0.295 HD
ENDBRANCH  30  32
ENDBRANCH  22  30
ENDBRANCH   1  21
TORSDOF 12
ENDMDL
MODEL 10
REMARK VINA RESULT:    -6.447      3.215      6.528
REMARK INTER + INTRA:         -10.579
REMARK INTER:                  -9.171
REMARK INTRA:                  -1.408
REMARK UNBOUND:                -1.116
REMARK  Name = BEM
REMARK  12 active torsions:
REMARK  status: ('A' for Active; 'I' for Inactive)
REMARK    1  A    between atoms: C_1  and  O_20
REMARK    2  A    between atoms: C_2  and  O_3
REMARK    3  A    between atoms: C_4  and  O_5
REMARK    4  A    between atoms: C_6  and  O_7
REMARK    5  A    between atoms: C_8  and  C_10
REMARK    6  A    between atoms: C_10  and  O_11
REMARK    7  A    between atoms: C_13  and  O_14
REMARK    8  A    between atoms: C_15  and  O_16
REMARK    9  A    between atoms: C_17  and  O_18
REMARK   10  A    between atoms: C_19  and  O_20
REMARK   11  A    between atoms: C_21  and  C_23
REMARK   12  A    between atoms: C_23  and  O_25
REMARK                            x       y       z     vdW  Elec       q    Type
REMARK                         _______ _______ _______ _____ _____    ______ ____
ROOT
ATOM      1  O   UNL     1     -35.264  11.550 -12.784  0.00  0.00    -0.340 OA
ENDROOT
BRANCH   1   2
ATOM      2  C   UNL     1     -34.360  12.519 -13.300  0.00  0.00    +0.283 C 
ATOM      3  C   UNL     1     -35.118  13.754 -13.839  0.00  0.00    +0.201 C 
ATOM      4  C   UNL     1     -35.937  13.375 -15.085  0.00  0.00    +0.179 C 
ATOM      5  C   UNL     1     -35.049  12.646 -16.106  0.00  0.00    +0.185 C 
ATOM      6  C   UNL     1     -34.317  11.480 -15.410  0.00  0.00    +0.260 C 
ATOM      7  O   UNL     1     -33.547  11.942 -14.311  0.00  0.00    -0.332 OA
BRANCH   3   8
ATOM      8  O   UNL     1     -34.202  14.769 -14.169  0.00  0.00    -0.384 OA
ATOM      9  H   UNL     1     -33.945  15.211 -13.319  0.00  0.00    +0.210 HD
ENDBRANCH   3   8
BRANCH   4  10
ATOM     10  O   UNL     1     -36.486  14.525 -15.674  0.00  0.00    -0.386 OA
ATOM     11  H   UNL     1     -36.720  15.143 -14.932  0.00  0.00    +0.210 HD
ENDBRANCH   4  10
BRANCH   5  12
ATOM     12  O   UNL     1     -35.841  12.145 -17.153  0.00  0.00    -0.386 OA
ATOM     13  H   UNL     1     -36.041  11.197 -16.935  0.00  0.00    +0.210 HD
ENDBRANCH   5  12
BRANCH   6  14
ATOM     14  C   UNL     1     -33.399  10.799 -16.383  0.00  0.00    +0.337 C 
ATOM     15  O   UNL     1     -33.852   9.942 -17.189  0.00  0.00    -0.248 OA
BRANCH  14  16
ATOM     16  O   UNL     1     -32.038  11.090 -16.371  0.00  0.00    -0.479 OA
ATOM     17  H   UNL     1     -31.682  11.884 -15.852  0.00  0.00    +0.295 HD
ENDBRANCH  14  16
ENDBRANCH   6  14
ENDBRANCH   1   2
BRANCH   1  21
ATOM     18  C   UNL     1     -34.575   9.359  -9.362  0.00  0.00    +0.280 C 
ATOM     19  C   UNL     1     -35.196  10.755  -9.100  0.00  0.00    +0.201 C 
ATOM     20  C   UNL     1     -35.669  11.410 -10.417  0.00  0.00    +0.180 C 
ATOM     21  C   UNL     1     -34.788  10.949 -11.589  0.00  0.00    +0.192 C 
ATOM     22  C   UNL     1     -34.885   9.396 -11.703  0.00  0.00    +0.260 C 
ATOM     23  O   UNL     1     -35.183   8.730 -10.478  0.00  0.00    -0.332 OA
BRANCH  18  24
ATOM     24  O   UNL     1     -34.719   8.546  -8.227  0.00  0.00    -0.365 OA
ATOM     25  H   UNL     1     -35.690   8.494  -8.025  0.00  0.00    +0.213 HD
ENDBRANCH  18  24
BRANCH  19  26
ATOM     26  O   UNL     1     -34.248  11.577  -8.465  0.00  0.00    -0.384 OA
ATOM     27  H   UNL     1     -33.410  11.048  -8.398  0.00  0.00    +0.210 HD
ENDBRANCH  19  26
BRANCH  20  28
ATOM     28  O   UNL     1     -35.638  12.810 -10.299  0.00  0.00    -0.386 OA
ATOM     29  H   UNL     1     -35.117  13.021  -9.480  0.00  0.00    +0.210 HD
ENDBRANCH  20  28
BRANCH  22  30
ATOM     30  C   UNL     1     -33.660   8.791 -12.336  0.00  0.00    +0.337 C 
ATOM     31  O   UNL     1     -33.489   7.542 -12.303  0.00  0.00    -0.248 OA
BRANCH  30  32
ATOM     32  O   UNL     1     -32.702   9.601 -12.937  0.00  0.00    -0.479 OA
ATOM     33  H   UNL     1     -32.610  10.576 -12.679  0.00  0.00    +0.295 HD
ENDBRANCH  30  32
ENDBRANCH  22  30
ENDBRANCH   1  21
TORSDOF 12
ENDMDL
MODEL 11
REMARK VINA RESULT:    -6.412      1.246      1.753
REMARK INTER + INTRA:         -10.527
REMARK INTER:                  -9.824
REMARK INTRA:                  -0.703
REMARK UNBOUND:                -1.116
REMARK  Name = BEM
REMARK  12 active torsions:
REMARK  status: ('A' for Active; 'I' for Inactive)
REMARK    1  A    between atoms: C_1  and  O_20
REMARK    2  A    between atoms: C_2  and  O_3
REMARK    3  A    between atoms: C_4  and  O_5
REMARK    4  A    between atoms: C_6  and  O_7
REMARK    5  A    between atoms: C_8  and  C_10
REMARK    6  A    between atoms: C_10  and  O_11
REMARK    7  A    between atoms: C_13  and  O_14
REMARK    8  A    between atoms: C_15  and  O_16
REMARK    9  A    between atoms: C_17  and  O_18
REMARK   10  A    between atoms: C_19  and  O_20
REMARK   11  A    between atoms: C_21  and  C_23
REMARK   12  A    between atoms: C_23  and  O_25
REMARK                            x       y       z     vdW  Elec       q    Type
REMARK                         _______ _______ _______ _____ _____    ______ ____
ROOT
ATOM      1  O   UNL     1     -34.179  11.919 -16.566  0.00  0.00    -0.340 OA
ENDROOT
BRANCH   1   2
ATOM      2  C   UNL     1     -34.862  12.307 -15.381  0.00  0.00    +0.283 C 
ATOM      3  C   UNL     1     -34.093  13.424 -14.637  0.00  0.00    +0.201 C 
ATOM      4  C   UNL     1     -32.764  12.879 -14.085  0.00  0.00    +0.179 C 
ATOM      5  C   UNL     1     -33.009  11.594 -13.279  0.00  0.00    +0.185 C 
ATOM      6  C   UNL     1     -33.834  10.603 -14.127  0.00  0.00    +0.260 C 
ATOM      7  O   UNL     1     -35.063  11.183 -14.539  0.00  0.00    -0.332 OA
BRANCH   3   8
ATOM      8  O   UNL     1     -34.875  13.918 -13.578  0.00  0.00    -0.384 OA
ATOM      9  H   UNL     1     -34.536  14.827 -13.371  0.00  0.00    +0.210 HD
ENDBRANCH   3   8
BRANCH   4  10
ATOM     10  O   UNL     1     -32.148  13.839 -13.267  0.00  0.00    -0.386 OA
ATOM     11  H   UNL     1     -31.767  14.529 -13.872  0.00  0.00    +0.210 HD
ENDBRANCH   4  10
BRANCH   5  12
ATOM     12  O   UNL     1     -31.780  11.006 -12.935  0.00  0.00    -0.386 OA
ATOM     13  H   UNL     1     -31.379  11.571 -12.223  0.00  0.00    +0.210 HD
ENDBRANCH   5  12
BRANCH   6  14
ATOM     14  C   UNL     1     -34.133   9.369 -13.327  0.00  0.00    +0.337 C 
ATOM     15  O   UNL     1     -33.190   8.668 -12.867  0.00  0.00    -0.248 OA
BRANCH  14  16
ATOM     16  O   UNL     1     -35.452   8.979 -13.121  0.00  0.00    -0.479 OA
ATOM     17  H   UNL     1     -35.956   8.457 -13.829  0.00  0.00    +0.295 HD
ENDBRANCH  14  16
ENDBRANCH   6  14
ENDBRANCH   1   2
BRANCH   1  21
ATOM     18  C   UNL     1     -37.161  10.175 -18.814  0.00  0.00    +0.280 C 
ATOM     19  C   UNL     1     -35.872   9.320 -18.710  0.00  0.00    +0.201 C 
ATOM     20  C   UNL     1     -34.906   9.898 -17.652  0.00  0.00    +0.180 C 
ATOM     21  C   UNL     1     -35.063  11.425 -17.562  0.00  0.00    +0.192 C 
ATOM     22  C   UNL     1     -36.538  11.750 -17.169  0.00  0.00    +0.260 C 
ATOM     23  O   UNL     1     -37.487  10.764 -17.566  0.00  0.00    -0.332 OA
BRANCH  18  24
ATOM     24  O   UNL     1     -38.232   9.382 -19.254  0.00  0.00    -0.365 OA
ATOM     25  H   UNL     1     -39.043   9.690 -18.772  0.00  0.00    +0.213 HD
ENDBRANCH  18  24
BRANCH  19  26
ATOM     26  O   UNL     1     -35.240   9.272 -19.966  0.00  0.00    -0.384 OA
ATOM     27  H   UNL     1     -35.914   9.558 -20.636  0.00  0.00    +0.210 HD
ENDBRANCH  19  26
BRANCH  20  28
ATOM     28  O   UNL     1     -33.580   9.559 -17.971  0.00  0.00    -0.386 OA
ATOM     29  H   UNL     1     -33.521   9.516 -18.961  0.00  0.00    +0.210 HD
ENDBRANCH  20  28
BRANCH  22  30
ATOM     30  C   UNL     1     -36.972  13.109 -17.649  0.00  0.00    +0.337 C 
ATOM     31  O   UNL     1     -38.196  13.412 -17.654  0.00  0.00    -0.248 OA
BRANCH  30  32
ATOM     32  O   UNL     1     -36.034  14.028 -18.110  0.00  0.00    -0.479 OA
ATOM     33  H   UNL     1     -36.311  14.798 -18.707  0.00  0.00    +0.295 HD
ENDBRANCH  30  32
ENDBRANCH  22  30
ENDBRANCH   1  21
TORSDOF 12
ENDMDL
MODEL 12
REMARK VINA RESULT:    -6.286      3.664      7.175
REMARK INTER + INTRA:         -10.342
REMARK INTER:                  -9.546
REMARK INTRA:                  -0.796
REMARK UNBOUND:                -1.116
REMARK  Name = BEM
REMARK  12 active torsions:
REMARK  status: ('A' for Active; 'I' for Inactive)
REMARK    1  A    between atoms: C_1  and  O_20
REMARK    2  A    between atoms: C_2  and  O_3
REMARK    3  A    between atoms: C_4  and  O_5
REMARK    4  A    between atoms: C_6  and  O_7
REMARK    5  A    between atoms: C_8  and  C_10
REMARK    6  A    between atoms: C_10  and  O_11
REMARK    7  A    between atoms: C_13  and  O_14
REMARK    8  A    between atoms: C_15  and  O_16
REMARK    9  A    between atoms: C_17  and  O_18
REMARK   10  A    between atoms: C_19  and  O_20
REMARK   11  A    between atoms: C_21  and  C_23
REMARK   12  A    between atoms: C_23  and  O_25
REMARK                            x       y       z     vdW  Elec       q    Type
REMARK                         _______ _______ _______ _____ _____    ______ ____
ROOT
ATOM      1  O   UNL     1     -34.829  10.039 -12.629  0.00  0.00    -0.340 OA
ENDROOT
BRANCH   1   2
ATOM      2  C   UNL     1     -33.640   9.903 -13.396  0.00  0.00    +0.283 C 
ATOM      3  C   UNL     1     -32.626  11.018 -13.052  0.00  0.00    +0.201 C 
ATOM      4  C   UNL     1     -33.160  12.385 -13.515  0.00  0.00    +0.179 C 
ATOM      5  C   UNL     1     -33.594  12.316 -14.988  0.00  0.00    +0.185 C 
ATOM      6  C   UNL     1     -34.553  11.124 -15.187  0.00  0.00    +0.260 C 
ATOM      7  O   UNL     1     -33.947   9.907 -14.782  0.00  0.00    -0.332 OA
BRANCH   3   8
ATOM      8  O   UNL     1     -31.397  10.756 -13.681  0.00  0.00    -0.384 OA
ATOM      9  H   UNL     1     -31.397   9.794 -13.923  0.00  0.00    +0.210 HD
ENDBRANCH   3   8
BRANCH   4  10
ATOM     10  O   UNL     1     -32.172  13.370 -13.360  0.00  0.00    -0.386 OA
ATOM     11  H   UNL     1     -32.646  14.240 -13.278  0.00  0.00    +0.210 HD
ENDBRANCH   4  10
BRANCH   5  12
ATOM     12  O   UNL     1     -34.245  13.508 -15.348  0.00  0.00    -0.386 OA
ATOM     13  H   UNL     1     -34.757  13.809 -14.552  0.00  0.00    +0.210 HD
ENDBRANCH   5  12
BRANCH   6  14
ATOM     14  C   UNL     1     -34.934  11.010 -16.634  0.00  0.00    +0.337 C 
ATOM     15  O   UNL     1     -35.991  10.407 -16.966  0.00  0.00    -0.248 OA
BRANCH  14  16
ATOM     16  O   UNL     1     -34.102  11.542 -17.613  0.00  0.00    -0.479 OA
ATOM     17  H   UNL     1     -33.098  11.578 -17.478  0.00  0.00    +0.295 HD
ENDBRANCH  14  16
ENDBRANCH   6  14
ENDBRANCH   1   2
BRANCH   1  21
ATOM     18  C   UNL     1     -34.906   9.183  -8.598  0.00  0.00    +0.280 C 
ATOM     19  C   UNL     1     -35.313  10.640  -8.939  0.00  0.00    +0.201 C 
ATOM     20  C   UNL     1     -35.518  10.819 -10.459  0.00  0.00    +0.180 C 
ATOM     21  C   UNL     1     -34.598   9.865 -11.239  0.00  0.00    +0.192 C 
ATOM     22  C   UNL     1     -34.937   8.399 -10.825  0.00  0.00    +0.260 C 
ATOM     23  O   UNL     1     -35.479   8.265  -9.513  0.00  0.00    -0.332 OA
BRANCH  18  24
ATOM     24  O   UNL     1     -35.311   8.862  -7.293  0.00  0.00    -0.365 OA
ATOM     25  H   UNL     1     -36.304   8.853  -7.288  0.00  0.00    +0.213 HD
ENDBRANCH  18  24
BRANCH  19  26
ATOM     26  O   UNL     1     -34.319  11.523  -8.478  0.00  0.00    -0.384 OA
ATOM     27  H   UNL     1     -34.463  11.632  -7.502  0.00  0.00    +0.210 HD
ENDBRANCH  19  26
BRANCH  20  28
ATOM     28  O   UNL     1     -35.268  12.152 -10.828  0.00  0.00    -0.386 OA
ATOM     29  H   UNL     1     -34.542  12.485 -10.238  0.00  0.00    +0.210 HD
ENDBRANCH  20  28
BRANCH  22  30
ATOM     30  C   UNL     1     -33.767   7.469 -11.000  0.00  0.00    +0.337 C 
ATOM     31  O   UNL     1     -33.718   6.702 -11.999  0.00  0.00    -0.248 OA
BRANCH  30  32
ATOM     32  O   UNL     1     -32.748   7.431 -10.053  0.00  0.00    -0.479 OA
ATOM     33  H   UNL     1     -31.876   7.922 -10.208  0.00  0.00    +0.295 HD
ENDBRANCH  30  32
ENDBRANCH  22  30
ENDBRANCH   1  21
TORSDOF 12
ENDMDL
MODEL 13
REMARK VINA RESULT:    -6.279      3.945      6.792
REMARK INTER + INTRA:         -10.332
REMARK INTER:                  -9.393
REMARK INTRA:                  -0.939
REMARK UNBOUND:                -1.116
REMARK  Name = BEM
REMARK  12 active torsions:
REMARK  status: ('A' for Active; 'I' for Inactive)
REMARK    1  A    between atoms: C_1  and  O_20
REMARK    2  A    between atoms: C_2  and  O_3
REMARK    3  A    between atoms: C_4  and  O_5
REMARK    4  A    between atoms: C_6  and  O_7
REMARK    5  A    between atoms: C_8  and  C_10
REMARK    6  A    between atoms: C_10  and  O_11
REMARK    7  A    between atoms: C_13  and  O_14
REMARK    8  A    between atoms: C_15  and  O_16
REMARK    9  A    between atoms: C_17  and  O_18
REMARK   10  A    between atoms: C_19  and  O_20
REMARK   11  A    between atoms: C_21  and  C_23
REMARK   12  A    between atoms: C_23  and  O_25
REMARK                            x       y       z     vdW  Elec       q    Type
REMARK                         _______ _______ _______ _____ _____    ______ ____
ROOT
ATOM      1  O   UNL     1     -33.810  10.385 -11.884  0.00  0.00    -0.340 OA
ENDROOT
BRANCH   1   2
ATOM      2  C   UNL     1     -34.722  11.107 -12.701  0.00  0.00    +0.283 C 
ATOM      3  C   UNL     1     -35.053  10.321 -13.992  0.00  0.00    +0.201 C 
ATOM      4  C   UNL     1     -33.809  10.226 -14.892  0.00  0.00    +0.179 C 
ATOM      5  C   UNL     1     -33.198  11.620 -15.106  0.00  0.00    +0.185 C 
ATOM      6  C   UNL     1     -32.980  12.301 -13.738  0.00  0.00    +0.260 C 
ATOM      7  O   UNL     1     -34.195  12.388 -13.011  0.00  0.00    -0.332 OA
BRANCH   3   8
ATOM      8  O   UNL     1     -36.091  10.963 -14.689  0.00  0.00    -0.384 OA
ATOM      9  H   UNL     1     -35.870  10.900 -15.654  0.00  0.00    +0.210 HD
ENDBRANCH   3   8
BRANCH   4  10
ATOM     10  O   UNL     1     -34.150   9.665 -16.133  0.00  0.00    -0.386 OA
ATOM     11  H   UNL     1     -33.606   8.840 -16.234  0.00  0.00    +0.210 HD
ENDBRANCH   4  10
BRANCH   5  12
ATOM     12  O   UNL     1     -31.967  11.502 -15.773  0.00  0.00    -0.386 OA
ATOM     13  H   UNL     1     -32.023  12.074 -16.583  0.00  0.00    +0.210 HD
ENDBRANCH   5  12
BRANCH   6  14
ATOM     14  C   UNL     1     -32.441  13.687 -13.938  0.00  0.00    +0.337 C 
ATOM     15  O   UNL     1     -33.108  14.688 -13.557  0.00  0.00    -0.248 OA
BRANCH  14  16
ATOM     16  O   UNL     1     -31.218  13.870 -14.576  0.00  0.00    -0.479 OA
ATOM     17  H   UNL     1     -31.075  13.548 -15.526  0.00  0.00    +0.295 HD
ENDBRANCH  14  16
ENDBRANCH   6  14
ENDBRANCH   1   2
BRANCH   1  21
ATOM     18  C   UNL     1     -35.109   7.935  -8.834  0.00  0.00    +0.280 C 
ATOM     19  C   UNL     1     -34.285   7.200  -9.923  0.00  0.00    +0.201 C 
ATOM     20  C   UNL     1     -33.612   8.206 -10.884  0.00  0.00    +0.180 C 
ATOM     21  C   UNL     1     -34.467   9.476 -11.013  0.00  0.00    +0.192 C 
ATOM     22  C   UNL     1     -34.624  10.116  -9.599  0.00  0.00    +0.260 C 
ATOM     23  O   UNL     1     -34.534   9.192  -8.518  0.00  0.00    -0.332 OA
BRANCH  18  24
ATOM     24  O   UNL     1     -35.188   7.148  -7.675  0.00  0.00    -0.365 OA
ATOM     25  H   UNL     1     -34.913   7.721  -6.912  0.00  0.00    +0.213 HD
ENDBRANCH  18  24
BRANCH  19  26
ATOM     26  O   UNL     1     -35.128   6.334 -10.642  0.00  0.00    -0.384 OA
ATOM     27  H   UNL     1     -36.056   6.658 -10.505  0.00  0.00    +0.210 HD
ENDBRANCH  19  26
BRANCH  20  28
ATOM     28  O   UNL     1     -33.417   7.613 -12.144  0.00  0.00    -0.386 OA
ATOM     29  H   UNL     1     -33.376   6.632 -12.000  0.00  0.00    +0.210 HD
ENDBRANCH  20  28
BRANCH  22  30
ATOM     30  C   UNL     1     -35.881  10.935  -9.477  0.00  0.00    +0.337 C 
ATOM     31  O   UNL     1     -36.962  10.502  -9.962  0.00  0.00    -0.248 OA
BRANCH  30  32
ATOM     32  O   UNL     1     -35.857  12.178  -8.853  0.00  0.00    -0.479 OA
ATOM     33  H   UNL     1     -35.687  13.023  -9.384  0.00  0.00    +0.295 HD
ENDBRANCH  30  32
ENDBRANCH  22  30
ENDBRANCH   1  21
TORSDOF 12
ENDMDL
MODEL 14
REMARK VINA RESULT:    -6.101      1.643      6.133
REMARK INTER + INTRA:         -10.071
REMARK INTER:                  -9.509
REMARK INTRA:                  -0.562
REMARK UNBOUND:                -1.116
REMARK  Name = BEM
REMARK  12 active torsions:
REMARK  status: ('A' for Active; 'I' for Inactive)
REMARK    1  A    between atoms: C_1  and  O_20
REMARK    2  A    between atoms: C_2  and  O_3
REMARK    3  A    between atoms: C_4  and  O_5
REMARK    4  A    between atoms: C_6  and  O_7
REMARK    5  A    between atoms: C_8  and  C_10
REMARK    6  A    between atoms: C_10  and  O_11
REMARK    7  A    between atoms: C_13  and  O_14
REMARK    8  A    between atoms: C_15  and  O_16
REMARK    9  A    between atoms: C_17  and  O_18
REMARK   10  A    between atoms: C_19  and  O_20
REMARK   11  A    between atoms: C_21  and  C_23
REMARK   12  A    between atoms: C_23  and  O_25
REMARK                            x       y       z     vdW  Elec       q    Type
REMARK                         _______ _______ _______ _____ _____    ______ ____
ROOT
ATOM      1  O   UNL     1     -35.864  11.916 -15.599  0.00  0.00    -0.340 OA
ENDROOT
BRANCH   1   2
ATOM      2  C   UNL     1     -35.740  12.568 -16.856  0.00  0.00    +0.283 C 
ATOM      3  C   UNL     1     -37.023  13.360 -17.200  0.00  0.00    +0.201 C 
ATOM      4  C   UNL     1     -38.196  12.395 -17.445  0.00  0.00    +0.179 C 
ATOM      5  C   UNL     1     -37.794  11.315 -18.461  0.00  0.00    +0.185 C 
ATOM      6  C   UNL     1     -36.471  10.656 -18.016  0.00  0.00    +0.260 C 
ATOM      7  O   UNL     1     -35.442  11.622 -17.872  0.00  0.00    -0.332 OA
BRANCH   3   8
ATOM      8  O   UNL     1     -36.808  14.141 -18.349  0.00  0.00    -0.384 OA
ATOM      9  H   UNL     1     -37.609  14.030 -18.925  0.00  0.00    +0.210 HD
ENDBRANCH   3   8
BRANCH   4  10
ATOM     10  O   UNL     1     -39.313  13.099 -17.922  0.00  0.00    -0.386 OA
ATOM     11  H   UNL     1     -40.101  12.757 -17.425  0.00  0.00    +0.210 HD
ENDBRANCH   4  10
BRANCH   5  12
ATOM     12  O   UNL     1     -38.801  10.338 -18.541  0.00  0.00    -0.386 OA
ATOM     13  H   UNL     1     -38.345   9.460 -18.621  0.00  0.00    +0.210 HD
ENDBRANCH   5  12
BRANCH   6  14
ATOM     14  C   UNL     1     -36.037   9.642 -19.033  0.00  0.00    +0.337 C 
ATOM     15  O   UNL     1     -34.925   9.765 -19.617  0.00  0.00    -0.248 OA
BRANCH  14  16
ATOM     16  O   UNL     1     -36.878   8.583 -19.358  0.00  0.00    -0.479 OA
ATOM     17  H   UNL     1     -37.226   8.468 -20.303  0.00  0.00    +0.295 HD
ENDBRANCH  14  16
ENDBRANCH   6  14
ENDBRANCH   1   2
BRANCH   1  21
ATOM     18  C   UNL     1     -32.612  11.255 -13.154  0.00  0.00    +0.280 C 
ATOM     19  C   UNL     1     -32.700  12.702 -13.706  0.00  0.00    +0.201 C 
ATOM     20  C   UNL     1     -34.062  12.954 -14.389  0.00  0.00    +0.180 C 
ATOM     21  C   UNL     1     -34.603  11.652 -15.001  0.00  0.00    +0.192 C 
ATOM     22  C   UNL     1     -34.767  10.598 -13.862  0.00  0.00    +0.260 C 
ATOM     23  O   UNL     1     -33.888  10.781 -12.755  0.00  0.00    -0.332 OA
BRANCH  18  24
ATOM     24  O   UNL     1     -31.730  11.207 -12.063  0.00  0.00    -0.365 OA
ATOM     25  H   UNL     1     -31.338  12.114 -11.962  0.00  0.00    +0.213 HD
ENDBRANCH  18  24
BRANCH  19  26
ATOM     26  O   UNL     1     -31.653  12.917 -14.620  0.00  0.00    -0.384 OA
ATOM     27  H   UNL     1     -31.089  12.100 -14.607  0.00  0.00    +0.210 HD
ENDBRANCH  19  26
BRANCH  20  28
ATOM     28  O   UNL     1     -33.930  13.945 -15.378  0.00  0.00    -0.386 OA
ATOM     29  H   UNL     1     -34.528  13.688 -16.127  0.00  0.00    +0.210 HD
ENDBRANCH  20  28
BRANCH  22  30
ATOM     30  C   UNL     1     -34.670   9.185 -14.372  0.00  0.00    +0.337 C 
ATOM     31  O   UNL     1     -34.524   8.233 -13.557  0.00  0.00    -0.248 OA
BRANCH  30  32
ATOM     32  O   UNL     1     -34.716   8.922 -15.737  0.00  0.00    -0.479 OA
ATOM     33  H   UNL     1     -34.954   7.999 -16.081  0.00  0.00    +0.295 HD
ENDBRANCH  30  32
ENDBRANCH  22  30
ENDBRANCH   1  21
TORSDOF 12
ENDMDL
MODEL 15
REMARK VINA RESULT:    -6.083      4.213      6.248
REMARK INTER + INTRA:         -10.045
REMARK INTER:                  -8.959
REMARK INTRA:                  -1.086
REMARK UNBOUND:                -1.116
REMARK  Name = BEM
REMARK  12 active torsions:
REMARK  status: ('A' for Active; 'I' for Inactive)
REMARK    1  A    between atoms: C_1  and  O_20
REMARK    2  A    between atoms: C_2  and  O_3
REMARK    3  A    between atoms: C_4  and  O_5
REMARK    4  A    between atoms: C_6  and  O_7
REMARK    5  A    between atoms: C_8  and  C_10
REMARK    6  A    between atoms: C_10  and  O_11
REMARK    7  A    between atoms: C_13  and  O_14
REMARK    8  A    between atoms: C_15  and  O_16
REMARK    9  A    between atoms: C_17  and  O_18
REMARK   10  A    between atoms: C_19  and  O_20
REMARK   11  A    between atoms: C_21  and  C_23
REMARK   12  A    between atoms: C_23  and  O_25
REMARK                            x       y       z     vdW  Elec       q    Type
REMARK                         _______ _______ _______ _____ _____    ______ ____
ROOT
ATOM      1  O   UNL     1     -35.461   9.550 -12.924  0.00  0.00    -0.340 OA
ENDROOT
BRANCH   1   2
ATOM      2  C   UNL     1     -34.716  10.663 -12.447  0.00  0.00    +0.283 C 
ATOM      3  C   UNL     1     -35.509  11.980 -12.623  0.00  0.00    +0.201 C 
ATOM      4  C   UNL     1     -35.671  12.308 -14.117  0.00  0.00    +0.179 C 
ATOM      5  C   UNL     1     -34.308  12.259 -14.824  0.00  0.00    +0.185 C 
ATOM      6  C   UNL     1     -33.613  10.917 -14.509  0.00  0.00    +0.260 C 
ATOM      7  O   UNL     1     -33.463  10.736 -13.110  0.00  0.00    -0.332 OA
BRANCH   3   8
ATOM      8  O   UNL     1     -34.836  13.032 -11.980  0.00  0.00    -0.384 OA
ATOM      9  H   UNL     1     -34.482  12.668 -11.127  0.00  0.00    +0.210 HD
ENDBRANCH   3   8
BRANCH   4  10
ATOM     10  O   UNL     1     -36.238  13.583 -14.275  0.00  0.00    -0.386 OA
ATOM     11  H   UNL     1     -35.939  13.922 -15.160  0.00  0.00    +0.210 HD
ENDBRANCH   4  10
BRANCH   5  12
ATOM     12  O   UNL     1     -34.487  12.379 -16.213  0.00  0.00    -0.386 OA
ATOM     13  H   UNL     1     -34.173  13.286 -16.467  0.00  0.00    +0.210 HD
ENDBRANCH   5  12
BRANCH   6  14
ATOM     14  C   UNL     1     -32.254  10.883 -15.144  0.00  0.00    +0.337 C 
ATOM     15  O   UNL     1     -32.141  10.828 -16.399  0.00  0.00    -0.248 OA
BRANCH  14  16
ATOM     16  O   UNL     1     -31.116  10.878 -14.344  0.00  0.00    -0.479 OA
ATOM     17  H   UNL     1     -30.220  10.585 -14.717  0.00  0.00    +0.295 HD
ENDBRANCH  14  16
ENDBRANCH   6  14
ENDBRANCH   1   2
BRANCH   1  21
ATOM     18  C   UNL     1     -35.706   7.212  -9.538  0.00  0.00    +0.280 C 
ATOM     19  C   UNL     1     -34.338   7.126 -10.264  0.00  0.00    +0.201 C 
ATOM     20  C   UNL     1     -34.220   8.212 -11.357  0.00  0.00    +0.180 C 
ATOM     21  C   UNL     1     -35.604   8.535 -11.941  0.00  0.00    +0.192 C 
ATOM     22  C   UNL     1     -36.524   9.042 -10.787  0.00  0.00    +0.260 C 
ATOM     23  O   UNL     1     -36.179   8.548  -9.495  0.00  0.00    -0.332 OA
BRANCH  18  24
ATOM     24  O   UNL     1     -35.592   6.710  -8.232  0.00  0.00    -0.365 OA
ATOM     25  H   UNL     1     -35.297   7.461  -7.654  0.00  0.00    +0.213 HD
ENDBRANCH  18  24
BRANCH  19  26
ATOM     26  O   UNL     1     -34.190   5.849 -10.833  0.00  0.00    -0.384 OA
ATOM     27  H   UNL     1     -34.002   5.223 -10.085  0.00  0.00    +0.210 HD
ENDBRANCH  19  26
BRANCH  20  28
ATOM     28  O   UNL     1     -33.346   7.782 -12.371  0.00  0.00    -0.386 OA
ATOM     29  H   UNL     1     -33.107   6.840 -12.169  0.00  0.00    +0.210 HD
ENDBRANCH  20  28
BRANCH  22  30
ATOM     30  C   UNL     1     -37.982   8.791 -11.065  0.00  0.00    +0.337 C 
ATOM     31  O   UNL     1     -38.847   9.097 -10.200  0.00  0.00    -0.248 OA
BRANCH  30  32
ATOM     32  O   UNL     1     -38.382   8.200 -12.259  0.00  0.00    -0.479 OA
ATOM     33  H   UNL     1     -39.364   8.095 -12.484  0.00  0.00    +0.295 HD
ENDBRANCH  30  32
ENDBRANCH  22  30
ENDBRANCH   1  21
TORSDOF 12
ENDMDL
MODEL 16
REMARK VINA RESULT:    -6.073      4.629      7.023
REMARK INTER + INTRA:         -10.030
REMARK INTER:                  -8.943
REMARK INTRA:                  -1.087
REMARK UNBOUND:                -1.116
REMARK  Name = BEM
REMARK  12 active torsions:
REMARK  status: ('A' for Active; 'I' for Inactive)
REMARK    1  A    between atoms: C_1  and  O_20
REMARK    2  A    between atoms: C_2  and  O_3
REMARK    3  A    between atoms: C_4  and  O_5
REMARK    4  A    between atoms: C_6  and  O_7
REMARK    5  A    between atoms: C_8  and  C_10
REMARK    6  A    between atoms: C_10  and  O_11
REMARK    7  A    between atoms: C_13  and  O_14
REMARK    8  A    between atoms: C_15  and  O_16
REMARK    9  A    between atoms: C_17  and  O_18
REMARK   10  A    between atoms: C_19  and  O_20
REMARK   11  A    between atoms: C_21  and  C_23
REMARK   12  A    between atoms: C_23  and  O_25
REMARK                            x       y       z     vdW  Elec       q    Type
REMARK                         _______ _______ _______ _____ _____    ______ ____
ROOT
ATOM      1  O   UNL     1     -35.007   9.960 -11.008  0.00  0.00    -0.340 OA
ENDROOT
BRANCH   1   2
ATOM      2  C   UNL     1     -35.881   9.047 -11.658  0.00  0.00    +0.283 C 
ATOM      3  C   UNL     1     -37.220   8.919 -10.894  0.00  0.00    +0.201 C 
ATOM      4  C   UNL     1     -36.993   8.242  -9.531  0.00  0.00    +0.179 C 
ATOM      5  C   UNL     1     -36.206   6.934  -9.710  0.00  0.00    +0.185 C 
ATOM      6  C   UNL     1     -34.933   7.209 -10.537  0.00  0.00    +0.260 C 
ATOM      7  O   UNL     1     -35.254   7.780 -11.796  0.00  0.00    -0.332 OA
BRANCH   3   8
ATOM      8  O   UNL     1     -38.130   8.161 -11.650  0.00  0.00    -0.384 OA
ATOM      9  H   UNL     1     -38.624   8.798 -12.229  0.00  0.00    +0.210 HD
ENDBRANCH   3   8
BRANCH   4  10
ATOM     10  O   UNL     1     -38.224   7.971  -8.912  0.00  0.00    -0.386 OA
ATOM     11  H   UNL     1     -38.927   8.121  -9.597  0.00  0.00    +0.210 HD
ENDBRANCH   4  10
BRANCH   5  12
ATOM     12  O   UNL     1     -35.847   6.420  -8.452  0.00  0.00    -0.386 OA
ATOM     13  H   UNL     1     -34.973   5.961  -8.567  0.00  0.00    +0.210 HD
ENDBRANCH   5  12
BRANCH   6  14
ATOM     14  C   UNL     1     -34.188   5.927 -10.771  0.00  0.00    +0.337 C 
ATOM     15  O   UNL     1     -33.064   5.941 -11.343  0.00  0.00    -0.248 OA
BRANCH  14  16
ATOM     16  O   UNL     1     -34.756   4.716 -10.386  0.00  0.00    -0.479 OA
ATOM     17  H   UNL     1     -34.311   3.836 -10.619  0.00  0.00    +0.295 HD
ENDBRANCH  14  16
ENDBRANCH   6  14
ENDBRANCH   1   2
BRANCH   1  21
ATOM     18  C   UNL     1     -33.591  12.144 -14.204  0.00  0.00    +0.280 C 
ATOM     19  C   UNL     1     -32.873  10.784 -14.005  0.00  0.00    +0.201 C 
ATOM     20  C   UNL     1     -33.616   9.909 -12.971  0.00  0.00    +0.180 C 
ATOM     21  C   UNL     1     -34.316  10.794 -11.927  0.00  0.00    +0.192 C 
ATOM     22  C   UNL     1     -35.330  11.723 -12.663  0.00  0.00    +0.260 C 
ATOM     23  O   UNL     1     -34.991  12.016 -14.017  0.00  0.00    -0.332 OA
BRANCH  18  24
ATOM     24  O   UNL     1     -33.333  12.643 -15.491  0.00  0.00    -0.365 OA
ATOM     25  H   UNL     1     -32.366  12.865 -15.530  0.00  0.00    +0.213 HD
ENDBRANCH  18  24
BRANCH  19  26
ATOM     26  O   UNL     1     -31.550  11.011 -13.585  0.00  0.00    -0.384 OA
ATOM     27  H   UNL     1     -31.543  10.914 -12.597  0.00  0.00    +0.210 HD
ENDBRANCH  19  26
BRANCH  20  28
ATOM     28  O   UNL     1     -32.715   9.030 -12.346  0.00  0.00    -0.386 OA
ATOM     29  H   UNL     1     -32.921   8.118 -12.679  0.00  0.00    +0.210 HD
ENDBRANCH  20  28
BRANCH  22  30
ATOM     30  C   UNL     1     -35.591  12.999 -11.908  0.00  0.00    +0.337 C 
ATOM     31  O   UNL     1     -35.809  14.069 -12.539  0.00  0.00    -0.248 OA
BRANCH  30  32
ATOM     32  O   UNL     1     -35.569  13.013 -10.517  0.00  0.00    -0.479 OA
ATOM     33  H   UNL     1     -35.902  12.219  -9.984  0.00  0.00    +0.295 HD
ENDBRANCH  30  32
ENDBRANCH  22  30
ENDBRANCH   1  21
TORSDOF 12
ENDMDL
MODEL 17
REMARK VINA RESULT:    -6.028      3.906      7.119
REMARK INTER + INTRA:          -9.964
REMARK INTER:                  -9.377
REMARK INTRA:                  -0.587
REMARK UNBOUND:                -1.116
REMARK  Name = BEM
REMARK  12 active torsions:
REMARK  status: ('A' for Active; 'I' for Inactive)
REMARK    1  A    between atoms: C_1  and  O_20
REMARK    2  A    between atoms: C_2  and  O_3
REMARK    3  A    between atoms: C_4  and  O_5
REMARK    4  A    between atoms: C_6  and  O_7
REMARK    5  A    between atoms: C_8  and  C_10
REMARK    6  A    between atoms: C_10  and  O_11
REMARK    7  A    between atoms: C_13  and  O_14
REMARK    8  A    between atoms: C_15  and  O_16
REMARK    9  A    between atoms: C_17  and  O_18
REMARK   10  A    between atoms: C_19  and  O_20
REMARK   11  A    between atoms: C_21  and  C_23
REMARK   12  A    between atoms: C_23  and  O_25
REMARK                            x       y       z     vdW  Elec       q    Type
REMARK                         _______ _______ _______ _____ _____    ______ ____
ROOT
ATOM      1  O   UNL     1     -33.681  10.470 -11.824  0.00  0.00    -0.340 OA
ENDROOT
BRANCH   1   2
ATOM      2  C   UNL     1     -34.638  11.165 -12.613  0.00  0.00    +0.283 C 
ATOM      3  C   UNL     1     -35.009  10.356 -13.877  0.00  0.00    +0.201 C 
ATOM      4  C   UNL     1     -33.801  10.268 -14.827  0.00  0.00    +0.179 C 
ATOM      5  C   UNL     1     -33.223  11.669 -15.084  0.00  0.00    +0.185 C 
ATOM      6  C   UNL     1     -32.961  12.372 -13.736  0.00  0.00    +0.260 C 
ATOM      7  O   UNL     1     -34.147  12.450 -12.961  0.00  0.00    -0.332 OA
BRANCH   3   8
ATOM      8  O   UNL     1     -36.085  10.971 -14.540  0.00  0.00    -0.384 OA
ATOM      9  H   UNL     1     -35.879  11.941 -14.583  0.00  0.00    +0.210 HD
ENDBRANCH   3   8
BRANCH   4  10
ATOM     10  O   UNL     1     -34.183   9.685 -16.046  0.00  0.00    -0.386 OA
ATOM     11  H   UNL     1     -33.356   9.582 -16.586  0.00  0.00    +0.210 HD
ENDBRANCH   4  10
BRANCH   5  12
ATOM     12  O   UNL     1     -32.019  11.562 -15.800  0.00  0.00    -0.386 OA
ATOM     13  H   UNL     1     -32.117  12.121 -16.615  0.00  0.00    +0.210 HD
ENDBRANCH   5  12
BRANCH   6  14
ATOM     14  C   UNL     1     -32.454  13.764 -13.976  0.00  0.00    +0.337 C 
ATOM     15  O   UNL     1     -33.178  14.759 -13.700  0.00  0.00    -0.248 OA
BRANCH  14  16
ATOM     16  O   UNL     1     -31.195  13.956 -14.537  0.00  0.00    -0.479 OA
ATOM     17  H   UNL     1     -30.974  13.588 -15.455  0.00  0.00    +0.295 HD
ENDBRANCH  14  16
ENDBRANCH   6  14
ENDBRANCH   1   2
BRANCH   1  21
ATOM     18  C   UNL     1     -36.002   8.398  -9.119  0.00  0.00    +0.280 C 
ATOM     19  C   UNL     1     -36.178   9.937  -9.049  0.00  0.00    +0.201 C 
ATOM     20  C   UNL     1     -35.492  10.630 -10.248  0.00  0.00    +0.180 C 
ATOM     21  C   UNL     1     -34.272   9.818 -10.709  0.00  0.00    +0.192 C 
ATOM     22  C   UNL     1     -34.752   8.392 -11.123  0.00  0.00    +0.260 C 
ATOM     23  O   UNL     1     -35.936   7.951 -10.463  0.00  0.00    -0.332 OA
BRANCH  18  24
ATOM     24  O   UNL     1     -37.065   7.760  -8.462  0.00  0.00    -0.365 OA
ATOM     25  H   UNL     1     -37.139   6.846  -8.843  0.00  0.00    +0.213 HD
ENDBRANCH  18  24
BRANCH  19  26
ATOM     26  O   UNL     1     -35.638  10.414  -7.841  0.00  0.00    -0.384 OA
ATOM     27  H   UNL     1     -36.261  11.109  -7.504  0.00  0.00    +0.210 HD
ENDBRANCH  19  26
BRANCH  20  28
ATOM     28  O   UNL     1     -35.109  11.936  -9.896  0.00  0.00    -0.386 OA
ATOM     29  H   UNL     1     -34.117  11.944  -9.845  0.00  0.00    +0.210 HD
ENDBRANCH  20  28
BRANCH  22  30
ATOM     30  C   UNL     1     -33.667   7.359 -10.982  0.00  0.00    +0.337 C 
ATOM     31  O   UNL     1     -32.778   7.498 -10.099  0.00  0.00    -0.248 OA
BRANCH  30  32
ATOM     32  O   UNL     1     -33.621   6.261 -11.837  0.00  0.00    -0.479 OA
ATOM     33  H   UNL     1     -33.079   5.440 -11.599  0.00  0.00    +0.295 HD
ENDBRANCH  30  32
ENDBRANCH  22  30
ENDBRANCH   1  21
TORSDOF 12
ENDMDL
MODEL 18
REMARK VINA RESULT:    -6.000      3.703      6.062
REMARK INTER + INTRA:          -9.922
REMARK INTER:                  -8.430
REMARK INTRA:                  -1.492
REMARK UNBOUND:                -1.116
REMARK  Name = BEM
REMARK  12 active torsions:
REMARK  status: ('A' for Active; 'I' for Inactive)
REMARK    1  A    between atoms: C_1  and  O_20
REMARK    2  A    between atoms: C_2  and  O_3
REMARK    3  A    between atoms: C_4  and  O_5
REMARK    4  A    between atoms: C_6  and  O_7
REMARK    5  A    between atoms: C_8  and  C_10
REMARK    6  A    between atoms: C_10  and  O_11
REMARK    7  A    between atoms: C_13  and  O_14
REMARK    8  A    between atoms: C_15  and  O_16
REMARK    9  A    between atoms: C_17  and  O_18
REMARK   10  A    between atoms: C_19  and  O_20
REMARK   11  A    between atoms: C_21  and  C_23
REMARK   12  A    between atoms: C_23  and  O_25
REMARK                            x       y       z     vdW  Elec       q    Type
REMARK                         _______ _______ _______ _____ _____    ______ ____
ROOT
ATOM      1  O   UNL     1     -35.817   9.381 -14.204  0.00  0.00    -0.340 OA
ENDROOT
BRANCH   1   2
ATOM      2  C   UNL     1     -35.743  10.734 -14.634  0.00  0.00    +0.283 C 
ATOM      3  C   UNL     1     -35.913  10.840 -16.168  0.00  0.00    +0.201 C 
ATOM      4  C   UNL     1     -34.709  10.202 -16.883  0.00  0.00    +0.179 C 
ATOM      5  C   UNL     1     -33.395  10.769 -16.322  0.00  0.00    +0.185 C 
ATOM      6  C   UNL     1     -33.397  10.648 -14.784  0.00  0.00    +0.260 C 
ATOM      7  O   UNL     1     -34.516  11.314 -14.220  0.00  0.00    -0.332 OA
BRANCH   3   8
ATOM      8  O   UNL     1     -36.023  12.189 -16.544  0.00  0.00    -0.384 OA
ATOM      9  H   UNL     1     -36.171  12.708 -15.711  0.00  0.00    +0.210 HD
ENDBRANCH   3   8
BRANCH   4  10
ATOM     10  O   UNL     1     -34.778  10.448 -18.263  0.00  0.00    -0.386 OA
ATOM     11  H   UNL     1     -33.844  10.570 -18.579  0.00  0.00    +0.210 HD
ENDBRANCH   4  10
BRANCH   5  12
ATOM     12  O   UNL     1     -32.306  10.053 -16.848  0.00  0.00    -0.386 OA
ATOM     13  H   UNL     1     -32.618   9.632 -17.692  0.00  0.00    +0.210 HD
ENDBRANCH   5  12
BRANCH   6  14
ATOM     14  C   UNL     1     -32.145  11.255 -14.222  0.00  0.00    +0.337 C 
ATOM     15  O   UNL     1     -32.215  12.245 -13.443  0.00  0.00    -0.248 OA
BRANCH  14  16
ATOM     16  O   UNL     1     -30.903  10.746 -14.588  0.00  0.00    -0.479 OA
ATOM     17  H   UNL     1     -30.751  10.364 -15.515  0.00  0.00    +0.295 HD
ENDBRANCH  14  16
ENDBRANCH   6  14
ENDBRANCH   1   2
BRANCH   1  21
ATOM     18  C   UNL     1     -36.747   8.251 -10.351  0.00  0.00    +0.280 C 
ATOM     19  C   UNL     1     -37.981   8.390 -11.280  0.00  0.00    +0.201 C 
ATOM     20  C   UNL     1     -37.550   8.554 -12.755  0.00  0.00    +0.180 C 
ATOM     21  C   UNL     1     -36.192   9.268 -12.839  0.00  0.00    +0.192 C 
ATOM     22  C   UNL     1     -35.135   8.418 -12.068  0.00  0.00    +0.260 C 
ATOM     23  O   UNL     1     -35.672   7.614 -11.020  0.00  0.00    -0.332 OA
BRANCH  18  24
ATOM     24  O   UNL     1     -37.088   7.517  -9.203  0.00  0.00    -0.365 OA
ATOM     25  H   UNL     1     -38.067   7.355  -9.239  0.00  0.00    +0.213 HD
ENDBRANCH  18  24
BRANCH  19  26
ATOM     26  O   UNL     1     -38.748   9.497 -10.875  0.00  0.00    -0.384 OA
ATOM     27  H   UNL     1     -38.163  10.056 -10.300  0.00  0.00    +0.210 HD
ENDBRANCH  19  26
BRANCH  20  28
ATOM     28  O   UNL     1     -38.528   9.271 -13.467  0.00  0.00    -0.386 OA
ATOM     29  H   UNL     1     -38.063   9.734 -14.212  0.00  0.00    +0.210 HD
ENDBRANCH  20  28
BRANCH  22  30
ATOM     30  C   UNL     1     -33.997   9.253 -11.547  0.00  0.00    +0.337 C 
ATOM     31  O   UNL     1     -32.905   8.703 -11.237  0.00  0.00    -0.248 OA
BRANCH  30  32
ATOM     32  O   UNL     1     -34.147  10.627 -11.382  0.00  0.00    -0.479 OA
ATOM     33  H   UNL     1     -34.278  11.028 -10.461  0.00  0.00    +0.295 HD
ENDBRANCH  30  32
ENDBRANCH  22  30
ENDBRANCH   1  21
TORSDOF 12
ENDMDL
MODEL 19
REMARK VINA RESULT:    -5.951      3.171      5.617
REMARK INTER + INTRA:          -9.850
REMARK INTER:                  -8.829
REMARK INTRA:                  -1.020
REMARK UNBOUND:                -1.116
REMARK  Name = BEM
REMARK  12 active torsions:
REMARK  status: ('A' for Active; 'I' for Inactive)
REMARK    1  A    between atoms: C_1  and  O_20
REMARK    2  A    between atoms: C_2  and  O_3
REMARK    3  A    between atoms: C_4  and  O_5
REMARK    4  A    between atoms: C_6  and  O_7
REMARK    5  A    between atoms: C_8  and  C_10
REMARK    6  A    between atoms: C_10  and  O_11
REMARK    7  A    between atoms: C_13  and  O_14
REMARK    8  A    between atoms: C_15  and  O_16
REMARK    9  A    between atoms: C_17  and  O_18
REMARK   10  A    between atoms: C_19  and  O_20
REMARK   11  A    between atoms: C_21  and  C_23
REMARK   12  A    between atoms: C_23  and  O_25
REMARK                            x       y       z     vdW  Elec       q    Type
REMARK                         _______ _______ _______ _____ _____    ______ ____
ROOT
ATOM      1  O   UNL     1     -34.388  11.143 -13.018  0.00  0.00    -0.340 OA
ENDROOT
BRANCH   1   2
ATOM      2  C   UNL     1     -34.022  11.197 -14.390  0.00  0.00    +0.283 C 
ATOM      3  C   UNL     1     -32.597  11.773 -14.563  0.00  0.00    +0.201 C 
ATOM      4  C   UNL     1     -32.570  13.257 -14.157  0.00  0.00    +0.179 C 
ATOM      5  C   UNL     1     -33.686  14.027 -14.879  0.00  0.00    +0.185 C 
ATOM      6  C   UNL     1     -35.032  13.303 -14.665  0.00  0.00    +0.260 C 
ATOM      7  O   UNL     1     -34.969  11.961 -15.121  0.00  0.00    -0.332 OA
BRANCH   3   8
ATOM      8  O   UNL     1     -32.189  11.644 -15.901  0.00  0.00    -0.384 OA
ATOM      9  H   UNL     1     -31.694  12.472 -16.132  0.00  0.00    +0.210 HD
ENDBRANCH   3   8
BRANCH   4  10
ATOM     10  O   UNL     1     -31.325  13.824 -14.474  0.00  0.00    -0.386 OA
ATOM     11  H   UNL     1     -31.451  14.810 -14.472  0.00  0.00    +0.210 HD
ENDBRANCH   4  10
BRANCH   5  12
ATOM     12  O   UNL     1     -33.770  15.334 -14.368  0.00  0.00    -0.386 OA
ATOM     13  H   UNL     1     -33.844  15.253 -13.382  0.00  0.00    +0.210 HD
ENDBRANCH   5  12
BRANCH   6  14
ATOM     14  C   UNL     1     -36.120  14.013 -15.418  0.00  0.00    +0.337 C 
ATOM     15  O   UNL     1     -35.876  14.542 -16.536  0.00  0.00    -0.248 OA
BRANCH  14  16
ATOM     16  O   UNL     1     -37.392  14.117 -14.863  0.00  0.00    -0.479 OA
ATOM     17  H   UNL     1     -38.211  14.194 -15.454  0.00  0.00    +0.295 HD
ENDBRANCH  14  16
ENDBRANCH   6  14
ENDBRANCH   1   2
BRANCH   1  21
ATOM     18  C   UNL     1     -35.719   7.728 -11.131  0.00  0.00    +0.280 C 
ATOM     19  C   UNL     1     -34.175   7.876 -11.149  0.00  0.00    +0.201 C 
ATOM     20  C   UNL     1     -33.757   9.284 -11.627  0.00  0.00    +0.180 C 
ATOM     21  C   UNL     1     -34.792   9.842 -12.617  0.00  0.00    +0.192 C 
ATOM     22  C   UNL     1     -36.176   9.914 -11.900  0.00  0.00    +0.260 C 
ATOM     23  O   UNL     1     -36.347   8.967 -10.848  0.00  0.00    -0.332 OA
BRANCH  18  24
ATOM     24  O   UNL     1     -36.102   6.777 -10.173  0.00  0.00    -0.365 OA
ATOM     25  H   UNL     1     -35.769   7.096  -9.293  0.00  0.00    +0.213 HD
ENDBRANCH  18  24
BRANCH  19  26
ATOM     26  O   UNL     1     -33.622   6.894 -11.991  0.00  0.00    -0.384 OA
ATOM     27  H   UNL     1     -32.873   6.477 -11.491  0.00  0.00    +0.210 HD
ENDBRANCH  19  26
BRANCH  20  28
ATOM     28  O   UNL     1     -32.484   9.233 -12.223  0.00  0.00    -0.386 OA
ATOM     29  H   UNL     1     -32.061  10.120 -12.081  0.00  0.00    +0.210 HD
ENDBRANCH  20  28
BRANCH  22  30
ATOM     30  C   UNL     1     -37.327   9.827 -12.867  0.00  0.00    +0.337 C 
ATOM     31  O   UNL     1     -37.160   9.288 -13.994  0.00  0.00    -0.248 OA
BRANCH  30  32
ATOM     32  O   UNL     1     -38.569  10.361 -12.536  0.00  0.00    -0.479 OA
ATOM     33  H   UNL     1     -38.930  10.290 -11.593  0.00  0.00    +0.295 HD
ENDBRANCH  30  32
ENDBRANCH  22  30
ENDBRANCH   1  21
TORSDOF 12
ENDMDL
MODEL 20
REMARK VINA RESULT:    -5.935      2.270      6.733
REMARK INTER + INTRA:          -9.826
REMARK INTER:                  -8.952
REMARK INTRA:                  -0.875
REMARK UNBOUND:                -1.116
REMARK  Name = BEM
REMARK  12 active torsions:
REMARK  status: ('A' for Active; 'I' for Inactive)
REMARK    1  A    between atoms: C_1  and  O_20
REMARK    2  A    between atoms: C_2  and  O_3
REMARK    3  A    between atoms: C_4  and  O_5
REMARK    4  A    between atoms: C_6  and  O_7
REMARK    5  A    between atoms: C_8  and  C_10
REMARK    6  A    between atoms: C_10  and  O_11
REMARK    7  A    between atoms: C_13  and  O_14
REMARK    8  A    between atoms: C_15  and  O_16
REMARK    9  A    between atoms: C_17  and  O_18
REMARK   10  A    between atoms: C_19  and  O_20
REMARK   11  A    between atoms: C_21  and  C_23
REMARK   12  A    between atoms: C_23  and  O_25
REMARK                            x       y       z     vdW  Elec       q    Type
REMARK                         _______ _______ _______ _____ _____    ______ ____
ROOT
ATOM      1  O   UNL     1     -35.366  13.077 -16.139  0.00  0.00    -0.340 OA
ENDROOT
BRANCH   1   2
ATOM      2  C   UNL     1     -36.375  13.271 -15.157  0.00  0.00    +0.283 C 
ATOM      3  C   UNL     1     -37.282  12.024 -15.038  0.00  0.00    +0.201 C 
ATOM      4  C   UNL     1     -38.106  11.841 -16.324  0.00  0.00    +0.179 C 
ATOM      5  C   UNL     1     -38.826  13.150 -16.687  0.00  0.00    +0.185 C 
ATOM      6  C   UNL     1     -37.806  14.308 -16.709  0.00  0.00    +0.260 C 
ATOM      7  O   UNL     1     -37.141  14.427 -15.462  0.00  0.00    -0.332 OA
BRANCH   3   8
ATOM      8  O   UNL     1     -38.148  12.167 -13.940  0.00  0.00    -0.384 OA
ATOM      9  H   UNL     1     -39.056  12.324 -14.309  0.00  0.00    +0.210 HD
ENDBRANCH   3   8
BRANCH   4  10
ATOM     10  O   UNL     1     -39.051  10.816 -16.154  0.00  0.00    -0.386 OA
ATOM     11  H   UNL     1     -39.583  10.775 -16.992  0.00  0.00    +0.210 HD
ENDBRANCH   4  10
BRANCH   5  12
ATOM     12  O   UNL     1     -39.425  13.028 -17.953  0.00  0.00    -0.386 OA
ATOM     13  H   UNL     1     -38.706  13.157 -18.626  0.00  0.00    +0.210 HD
ENDBRANCH   5  12
BRANCH   6  14
ATOM     14  C   UNL     1     -38.508  15.602 -17.002  0.00  0.00    +0.337 C 
ATOM     15  O   UNL     1     -39.046  16.257 -16.068  0.00  0.00    -0.248 OA
BRANCH  14  16
ATOM     16  O   UNL     1     -38.595  16.061 -18.312  0.00  0.00    -0.479 OA
ATOM     17  H   UNL     1     -37.759  16.274 -18.845  0.00  0.00    +0.295 HD
ENDBRANCH  14  16
ENDBRANCH   6  14
ENDBRANCH   1   2
BRANCH   1  21
ATOM     18  C   UNL     1     -32.019  14.423 -14.143  0.00  0.00    +0.280 C 
ATOM     19  C   UNL     1     -32.888  15.556 -14.749  0.00  0.00    +0.201 C 
ATOM     20  C   UNL     1     -34.245  15.011 -15.246  0.00  0.00    +0.180 C 
ATOM     21  C   UNL     1     -34.097  13.553 -15.711  0.00  0.00    +0.192 C 
ATOM     22  C   UNL     1     -33.589  12.697 -14.509  0.00  0.00    +0.260 C 
ATOM     23  O   UNL     1     -32.827  13.422 -13.547  0.00  0.00    -0.332 OA
BRANCH  18  24
ATOM     24  O   UNL     1     -31.138  14.949 -13.186  0.00  0.00    -0.365 OA
ATOM     25  H   UNL     1     -31.679  15.500 -12.561  0.00  0.00    +0.213 HD
ENDBRANCH  18  24
BRANCH  19  26
ATOM     26  O   UNL     1     -32.192  16.161 -15.811  0.00  0.00    -0.384 OA
ATOM     27  H   UNL     1     -32.508  15.727 -16.645  0.00  0.00    +0.210 HD
ENDBRANCH  19  26
BRANCH  20  28
ATOM     28  O   UNL     1     -34.734  15.813 -16.292  0.00  0.00    -0.386 OA
ATOM     29  H   UNL     1     -35.718  15.679 -16.325  0.00  0.00    +0.210 HD
ENDBRANCH  20  28
BRANCH  22  30
ATOM     30  C   UNL     1     -32.831  11.476 -14.956  0.00  0.00    +0.337 C 
ATOM     31  O   UNL     1     -32.638  11.272 -16.185  0.00  0.00    -0.248 OA
BRANCH  30  32
ATOM     32  O   UNL     1     -32.361  10.556 -14.024  0.00  0.00    -0.479 OA
ATOM     33  H   UNL     1     -31.493  10.058 -14.177  0.00  0.00    +0.295 HD
ENDBRANCH  30  32
ENDBRANCH  22  30
ENDBRANCH   1  21
TORSDOF 12
ENDMDL
