MODEL 3
REMARK VINA RESULT:    -6.040      2.354      6.841
REMARK INTER + INTRA:         -12.074
REMARK INTER:                 -10.123
REMARK INTRA:                  -1.951
REMARK UNBOUND:                -1.620
REMARK  Name = SPQ
REMARK  16 active torsions:
REMARK  status: ('A' for Active; 'I' for Inactive)
REMARK    1  A    between atoms: O_1  and  P_2
REMARK    2  A    between atoms: P_2  and  O_3
REMARK    3  A    between atoms: P_2  and  O_5
REMARK    4  A    between atoms: O_5  and  C_6
REMARK    5  A    between atoms: C_6  and  C_7
REMARK    6  A    between atoms: C_6  and  C_10
REMARK    7  A    between atoms: C_6  and  O_12
REMARK    8  A    between atoms: C_7  and  O_8
REMARK    9  A    between atoms: O_12  and  C_13
REMARK   10  A    between atoms: C_14  and  O_15
REMARK   11  A    between atoms: C_17  and  C_18
REMARK   12  A    between atoms: C_18  and  O_19
REMARK   13  A    between atoms: C_22  and  O_23
REMARK   14  A    between atoms: O_23  and  P_24
REMARK   15  A    between atoms: P_24  and  O_25
REMARK   16  A    between atoms: P_24  and  O_26
REMARK                            x       y       z     vdW  Elec       q    Type
REMARK                         _______ _______ _______ _____ _____    ______ ____
ROOT
ATOM      1  C   UNL     1      51.644  67.107  93.479  0.00  0.00    +0.158 C 
ATOM      2  C   UNL     1      50.382  66.343  93.907  0.00  0.00    +0.177 C 
ATOM      3  C   UNL     1      51.259  68.189  92.459  0.00  0.00    +0.076 C 
ATOM      4  C   UNL     1      50.357  67.679  91.353  0.00  0.00    +0.038 C 
ATOM      5  C   UNL     1      49.617  66.564  91.511  0.00  0.00    +0.018 C 
ATOM      6  C   UNL     1      49.756  65.632  92.691  0.00  0.00    +0.185 C 
ENDROOT
BRANCH   4   7
ATOM      7  C   UNL     1      50.201  68.501  90.130  0.00  0.00    +0.333 C 
ATOM      8  O   UNL     1      50.674  68.098  89.033  0.00  0.00    -0.245 OA
BRANCH   7   9
ATOM      9  O   UNL     1      49.532  69.723  90.176  0.00  0.00    -0.477 OA
ATOM     10  H   UNL     1      49.225  70.115  91.057  0.00  0.00    +0.295 HD
ENDBRANCH   7   9
ENDBRANCH   4   7
BRANCH   2  11
ATOM     11  O   UNL     1      50.712  65.405  94.899  0.00  0.00    -0.386 OA
ATOM     12  H   UNL     1      51.498  64.899  94.563  0.00  0.00    +0.210 HD
ENDBRANCH   2  11
BRANCH   1  13
ATOM     13  O   UNL     1      52.215  67.739  94.620  0.00  0.00    -0.331 OA
BRANCH  13  14
ATOM     14  C   UNL     1      53.607  67.491  94.787  0.00  0.00    +0.307 C 
BRANCH  14  15
ATOM     15  C   UNL     1      54.303  68.274  93.646  0.00  0.00    +0.291 C 
ATOM     16  F   UNL     1      54.354  69.626  93.940  0.00  0.00    -0.243 F 
ENDBRANCH  14  15
BRANCH  14  17
ATOM     17  C   UNL     1      53.858  65.998  94.631  0.00  0.00    +0.368 C 
ATOM     18  O   UNL     1      54.520  65.562  93.649  0.00  0.00    -0.245 OA
BRANCH  17  19
ATOM     19  O   UNL     1      53.432  65.109  95.615  0.00  0.00    -0.477 OA
ATOM     20  H   UNL     1      53.447  64.109  95.454  0.00  0.00    +0.295 HD
ENDBRANCH  17  19
ENDBRANCH  14  17
BRANCH  14  21
ATOM     21  O   UNL     1      54.010  67.971  96.074  0.00  0.00    -0.240 OA
BRANCH  21  22
ATOM     22  P   UNL     1      52.713  68.474  97.086  0.00  0.00    +0.475 P 
ATOM     23  O   UNL     1      53.181  68.833  98.478  0.00  0.00    -0.227 OA
BRANCH  22  24
ATOM     24  O   UNL     1      51.598  67.207  97.198  0.00  0.00    -0.303 OA
ATOM     25  H   UNL     1      52.046  66.439  96.762  0.00  0.00    +0.222 HD
ENDBRANCH  22  24
BRANCH  22  26
ATOM     26  O   UNL     1      51.942  69.812  96.396  0.00  0.00    -0.303 OA
ATOM     27  H   UNL     1      52.157  69.755  95.430  0.00  0.00    +0.222 HD
ENDBRANCH  22  26
ENDBRANCH  21  22
ENDBRANCH  14  21
ENDBRANCH  13  14
ENDBRANCH   1  13
BRANCH   6  28
ATOM     28  O   UNL     1      50.584  64.545  92.315  0.00  0.00    -0.277 OA
BRANCH  28  29
ATOM     29  P   UNL     1      49.782  63.059  92.578  0.00  0.00    +0.473 P 
ATOM     30  O   UNL     1      49.027  62.635  91.337  0.00  0.00    -0.228 OA
BRANCH  29  31
ATOM     31  O   UNL     1      50.933  61.878  92.952  0.00  0.00    -0.303 OA
ATOM     32  H   UNL     1      50.847  61.205  92.231  0.00  0.00    +0.222 HD
ENDBRANCH  29  31
BRANCH  29  33
ATOM     33  O   UNL     1      48.710  63.207  93.882  0.00  0.00    -0.303 OA
ATOM     34  H   UNL     1      47.806  63.221  93.479  0.00  0.00    +0.222 HD
ENDBRANCH  29  33
ENDBRANCH  28  29
ENDBRANCH   6  28
TORSDOF 16
ENDMDL
