MODEL 6
REMARK VINA RESULT:    -5.987      4.146      6.852
REMARK INTER + INTRA:         -11.983
REMARK INTER:                 -10.498
REMARK INTRA:                  -1.484
REMARK UNBOUND:                -1.620
REMARK  Name = SPQ
REMARK  16 active torsions:
REMARK  status: ('A' for Active; 'I' for Inactive)
REMARK    1  A    between atoms: O_1  and  P_2
REMARK    2  A    between atoms: P_2  and  O_3
REMARK    3  A    between atoms: P_2  and  O_5
REMARK    4  A    between atoms: O_5  and  C_6
REMARK    5  A    between atoms: C_6  and  C_7
REMARK    6  A    between atoms: C_6  and  C_10
REMARK    7  A    between atoms: C_6  and  O_12
REMARK    8  A    between atoms: C_7  and  O_8
REMARK    9  A    between atoms: O_12  and  C_13
REMARK   10  A    between atoms: C_14  and  O_15
REMARK   11  A    between atoms: C_17  and  C_18
REMARK   12  A    between atoms: C_18  and  O_19
REMARK   13  A    between atoms: C_22  and  O_23
REMARK   14  A    between atoms: O_23  and  P_24
REMARK   15  A    between atoms: P_24  and  O_25
REMARK   16  A    between atoms: P_24  and  O_26
REMARK                            x       y       z     vdW  Elec       q    Type
REMARK                         _______ _______ _______ _____ _____    ______ ____
ROOT
ATOM      1  C   UNL     1      53.598  68.248  92.173  0.00  0.00    +0.158 C 
ATOM      2  C   UNL     1      54.340  67.696  90.947  0.00  0.00    +0.177 C 
ATOM      3  C   UNL     1      52.115  68.440  91.823  0.00  0.00    +0.076 C 
ATOM      4  C   UNL     1      51.896  69.159  90.507  0.00  0.00    +0.038 C 
ATOM      5  C   UNL     1      52.854  69.193  89.560  0.00  0.00    +0.018 C 
ATOM      6  C   UNL     1      54.265  68.706  89.784  0.00  0.00    +0.185 C 
ENDROOT
BRANCH   4   7
ATOM      7  C   UNL     1      50.555  69.721  90.220  0.00  0.00    +0.333 C 
ATOM      8  O   UNL     1      49.530  68.993  90.318  0.00  0.00    -0.245 OA
BRANCH   7   9
ATOM      9  O   UNL     1      50.408  71.055  89.844  0.00  0.00    -0.477 OA
ATOM     10  H   UNL     1      50.939  71.439  89.072  0.00  0.00    +0.295 HD
ENDBRANCH   7   9
ENDBRANCH   4   7
BRANCH   2  11
ATOM     11  O   UNL     1      55.680  67.442  91.281  0.00  0.00    -0.386 OA
ATOM     12  H   UNL     1      56.195  67.462  90.432  0.00  0.00    +0.210 HD
ENDBRANCH   2  11
BRANCH   1  13
ATOM     13  O   UNL     1      53.696  67.308  93.238  0.00  0.00    -0.331 OA
BRANCH  13  14
ATOM     14  C   UNL     1      54.042  67.886  94.493  0.00  0.00    +0.307 C 
BRANCH  14  15
ATOM     15  C   UNL     1      54.350  69.373  94.189  0.00  0.00    +0.291 C 
ATOM     16  F   UNL     1      53.911  70.186  95.221  0.00  0.00    -0.243 F 
ENDBRANCH  14  15
BRANCH  14  17
ATOM     17  C   UNL     1      55.285  67.188  95.025  0.00  0.00    +0.368 C 
ATOM     18  O   UNL     1      56.022  66.520  94.250  0.00  0.00    -0.245 OA
BRANCH  17  19
ATOM     19  O   UNL     1      55.664  67.350  96.355  0.00  0.00    -0.477 OA
ATOM     20  H   UNL     1      56.635  67.493  96.606  0.00  0.00    +0.295 HD
ENDBRANCH  17  19
ENDBRANCH  14  17
BRANCH  14  21
ATOM     21  O   UNL     1      52.929  67.753  95.383  0.00  0.00    -0.240 OA
BRANCH  21  22
ATOM     22  P   UNL     1      52.142  66.225  95.318  0.00  0.00    +0.475 P 
ATOM     23  O   UNL     1      51.656  65.774  96.678  0.00  0.00    -0.227 OA
BRANCH  22  24
ATOM     24  O   UNL     1      53.239  65.081  94.728  0.00  0.00    -0.303 OA
ATOM     25  H   UNL     1      53.175  64.322  95.360  0.00  0.00    +0.222 HD
ENDBRANCH  22  24
BRANCH  22  26
ATOM     26  O   UNL     1      50.827  66.309  94.257  0.00  0.00    -0.303 OA
ATOM     27  H   UNL     1      50.234  67.001  94.648  0.00  0.00    +0.222 HD
ENDBRANCH  22  26
ENDBRANCH  21  22
ENDBRANCH  14  21
ENDBRANCH  13  14
ENDBRANCH   1  13
BRANCH   6  28
ATOM     28  O   UNL     1      55.087  69.819  90.087  0.00  0.00    -0.277 OA
BRANCH  28  29
ATOM     29  P   UNL     1      55.495  70.671  88.662  0.00  0.00    +0.473 P 
ATOM     30  O   UNL     1      54.493  71.774  88.397  0.00  0.00    -0.228 OA
BRANCH  29  31
ATOM     31  O   UNL     1      57.028  71.356  88.858  0.00  0.00    -0.303 OA
ATOM     32  H   UNL     1      56.930  71.983  89.618  0.00  0.00    +0.222 HD
ENDBRANCH  29  31
BRANCH  29  33
ATOM     33  O   UNL     1      55.540  69.603  87.348  0.00  0.00    -0.303 OA
ATOM     34  H   UNL     1      56.348  69.854  86.833  0.00  0.00    +0.222 HD
ENDBRANCH  29  33
ENDBRANCH  28  29
ENDBRANCH   6  28
TORSDOF 16
ENDMDL
