MODEL 17
REMARK VINA RESULT:    -5.589      3.834      6.119
REMARK INTER + INTRA:         -11.294
REMARK INTER:                  -9.368
REMARK INTRA:                  -1.926
REMARK UNBOUND:                -1.620
REMARK  Name = SPQ
REMARK  16 active torsions:
REMARK  status: ('A' for Active; 'I' for Inactive)
REMARK    1  A    between atoms: O_1  and  P_2
REMARK    2  A    between atoms: P_2  and  O_3
REMARK    3  A    between atoms: P_2  and  O_5
REMARK    4  A    between atoms: O_5  and  C_6
REMARK    5  A    between atoms: C_6  and  C_7
REMARK    6  A    between atoms: C_6  and  C_10
REMARK    7  A    between atoms: C_6  and  O_12
REMARK    8  A    between atoms: C_7  and  O_8
REMARK    9  A    between atoms: O_12  and  C_13
REMARK   10  A    between atoms: C_14  and  O_15
REMARK   11  A    between atoms: C_17  and  C_18
REMARK   12  A    between atoms: C_18  and  O_19
REMARK   13  A    between atoms: C_22  and  O_23
REMARK   14  A    between atoms: O_23  and  P_24
REMARK   15  A    between atoms: P_24  and  O_25
REMARK   16  A    between atoms: P_24  and  O_26
REMARK                            x       y       z     vdW  Elec       q    Type
REMARK                         _______ _______ _______ _____ _____    ______ ____
ROOT
ATOM      1  C   UNL     1      52.466  68.348  92.071  0.00  0.00    +0.158 C 
ATOM      2  C   UNL     1      53.539  68.919  93.010  0.00  0.00    +0.177 C 
ATOM      3  C   UNL     1      51.075  68.686  92.628  0.00  0.00    +0.076 C 
ATOM      4  C   UNL     1      50.928  68.380  94.105  0.00  0.00    +0.038 C 
ATOM      5  C   UNL     1      52.004  68.280  94.909  0.00  0.00    +0.018 C 
ATOM      6  C   UNL     1      53.426  68.266  94.402  0.00  0.00    +0.185 C 
ENDROOT
BRANCH   4   7
ATOM      7  C   UNL     1      49.565  68.318  94.684  0.00  0.00    +0.333 C 
ATOM      8  O   UNL     1      48.563  68.192  93.930  0.00  0.00    -0.245 OA
BRANCH   7   9
ATOM      9  O   UNL     1      49.375  68.396  96.062  0.00  0.00    -0.477 OA
ATOM     10  H   UNL     1      49.380  67.562  96.636  0.00  0.00    +0.295 HD
ENDBRANCH   7   9
ENDBRANCH   4   7
BRANCH   2  11
ATOM     11  O   UNL     1      54.813  68.684  92.468  0.00  0.00    -0.386 OA
ATOM     12  H   UNL     1      55.398  69.423  92.781  0.00  0.00    +0.210 HD
ENDBRANCH   2  11
BRANCH   1  13
ATOM     13  O   UNL     1      52.601  68.951  90.788  0.00  0.00    -0.331 OA
BRANCH  13  14
ATOM     14  C   UNL     1      52.613  68.023  89.708  0.00  0.00    +0.307 C 
BRANCH  14  15
ATOM     15  C   UNL     1      51.211  67.363  89.719  0.00  0.00    +0.291 C 
ATOM     16  F   UNL     1      50.223  68.308  89.503  0.00  0.00    -0.243 F 
ENDBRANCH  14  15
BRANCH  14  17
ATOM     17  C   UNL     1      53.689  66.979  89.972  0.00  0.00    +0.368 C 
ATOM     18  O   UNL     1      53.376  65.767  90.122  0.00  0.00    -0.245 OA
BRANCH  17  19
ATOM     19  O   UNL     1      55.033  67.343  89.969  0.00  0.00    -0.477 OA
ATOM     20  H   UNL     1      55.315  68.289  89.742  0.00  0.00    +0.295 HD
ENDBRANCH  17  19
ENDBRANCH  14  17
BRANCH  14  21
ATOM     21  O   UNL     1      52.846  68.737  88.490  0.00  0.00    -0.240 OA
BRANCH  21  22
ATOM     22  P   UNL     1      53.239  70.398  88.700  0.00  0.00    +0.475 P 
ATOM     23  O   UNL     1      53.608  71.069  87.395  0.00  0.00    -0.227 OA
BRANCH  22  24
ATOM     24  O   UNL     1      54.555  70.508  89.757  0.00  0.00    -0.303 OA
ATOM     25  H   UNL     1      54.804  71.466  89.750  0.00  0.00    +0.222 HD
ENDBRANCH  22  24
BRANCH  22  26
ATOM     26  O   UNL     1      51.924  71.209  89.390  0.00  0.00    -0.303 OA
ATOM     27  H   UNL     1      51.145  70.626  89.204  0.00  0.00    +0.222 HD
ENDBRANCH  22  26
ENDBRANCH  21  22
ENDBRANCH  14  21
ENDBRANCH  13  14
ENDBRANCH   1  13
BRANCH   6  28
ATOM     28  O   UNL     1      53.865  66.921  94.317  0.00  0.00    -0.277 OA
BRANCH  28  29
ATOM     29  P   UNL     1      55.281  66.691  95.246  0.00  0.00    +0.473 P 
ATOM     30  O   UNL     1      55.378  65.258  95.723  0.00  0.00    -0.228 OA
BRANCH  29  31
ATOM     31  O   UNL     1      56.626  67.042  94.283  0.00  0.00    -0.303 OA
ATOM     32  H   UNL     1      57.405  66.912  94.881  0.00  0.00    +0.222 HD
ENDBRANCH  29  31
BRANCH  29  33
ATOM     33  O   UNL     1      55.274  67.742  96.575  0.00  0.00    -0.303 OA
ATOM     34  H   UNL     1      55.452  68.641  96.200  0.00  0.00    +0.222 HD
ENDBRANCH  29  33
ENDBRANCH  28  29
ENDBRANCH   6  28
TORSDOF 16
ENDMDL
