MODEL 2
REMARK VINA RESULT:    -6.105      3.359      6.393
REMARK INTER + INTRA:         -12.186
REMARK INTER:                 -10.423
REMARK INTRA:                  -1.763
REMARK UNBOUND:                -1.620
REMARK  Name = SPQ
REMARK  16 active torsions:
REMARK  status: ('A' for Active; 'I' for Inactive)
REMARK    1  A    between atoms: O_1  and  P_2
REMARK    2  A    between atoms: P_2  and  O_3
REMARK    3  A    between atoms: P_2  and  O_5
REMARK    4  A    between atoms: O_5  and  C_6
REMARK    5  A    between atoms: C_6  and  C_7
REMARK    6  A    between atoms: C_6  and  C_10
REMARK    7  A    between atoms: C_6  and  O_12
REMARK    8  A    between atoms: C_7  and  O_8
REMARK    9  A    between atoms: O_12  and  C_13
REMARK   10  A    between atoms: C_14  and  O_15
REMARK   11  A    between atoms: C_17  and  C_18
REMARK   12  A    between atoms: C_18  and  O_19
REMARK   13  A    between atoms: C_22  and  O_23
REMARK   14  A    between atoms: O_23  and  P_24
REMARK   15  A    between atoms: P_24  and  O_25
REMARK   16  A    between atoms: P_24  and  O_26
REMARK                            x       y       z     vdW  Elec       q    Type
REMARK                         _______ _______ _______ _____ _____    ______ ____
ROOT
ATOM      1  C   UNL     1      52.460  67.909  94.094  0.00  0.00    +0.158 C 
ATOM      2  C   UNL     1      52.290  67.193  92.746  0.00  0.00    +0.177 C 
ATOM      3  C   UNL     1      51.143  67.830  94.879  0.00  0.00    +0.076 C 
ATOM      4  C   UNL     1      49.928  68.202  94.054  0.00  0.00    +0.038 C 
ATOM      5  C   UNL     1      49.951  68.142  92.708  0.00  0.00    +0.018 C 
ATOM      6  C   UNL     1      51.206  67.898  91.906  0.00  0.00    +0.185 C 
ENDROOT
BRANCH   4   7
ATOM      7  C   UNL     1      48.661  68.513  94.757  0.00  0.00    +0.333 C 
ATOM      8  O   UNL     1      48.682  69.142  95.849  0.00  0.00    -0.245 OA
BRANCH   7   9
ATOM      9  O   UNL     1      47.436  68.119  94.223  0.00  0.00    -0.477 OA
ATOM     10  H   UNL     1      47.198  68.324  93.260  0.00  0.00    +0.295 HD
ENDBRANCH   7   9
ENDBRANCH   4   7
BRANCH   2  11
ATOM     11  O   UNL     1      53.512  67.191  92.054  0.00  0.00    -0.386 OA
ATOM     12  H   UNL     1      54.223  67.048  92.733  0.00  0.00    +0.210 HD
ENDBRANCH   2  11
BRANCH   1  13
ATOM     13  O   UNL     1      53.478  67.253  94.844  0.00  0.00    -0.331 OA
BRANCH  13  14
ATOM     14  C   UNL     1      54.364  68.138  95.519  0.00  0.00    +0.307 C 
BRANCH  14  15
ATOM     15  C   UNL     1      53.527  68.766  96.662  0.00  0.00    +0.291 C 
ATOM     16  F   UNL     1      54.307  68.963  97.789  0.00  0.00    -0.243 F 
ENDBRANCH  14  15
BRANCH  14  17
ATOM     17  C   UNL     1      54.815  69.216  94.543  0.00  0.00    +0.368 C 
ATOM     18  O   UNL     1      54.667  70.435  94.828  0.00  0.00    -0.245 OA
BRANCH  17  19
ATOM     19  O   UNL     1      55.471  68.865  93.366  0.00  0.00    -0.477 OA
ATOM     20  H   UNL     1      56.465  68.670  93.363  0.00  0.00    +0.295 HD
ENDBRANCH  17  19
ENDBRANCH  14  17
BRANCH  14  21
ATOM     21  O   UNL     1      55.467  67.383  96.032  0.00  0.00    -0.240 OA
BRANCH  21  22
ATOM     22  P   UNL     1      55.653  65.825  95.328  0.00  0.00    +0.475 P 
ATOM     23  O   UNL     1      56.929  65.145  95.773  0.00  0.00    -0.227 OA
BRANCH  22  24
ATOM     24  O   UNL     1      55.689  65.997  93.646  0.00  0.00    -0.303 OA
ATOM     25  H   UNL     1      55.988  66.929  93.495  0.00  0.00    +0.222 HD
ENDBRANCH  22  24
BRANCH  22  26
ATOM     26  O   UNL     1      54.332  64.854  95.743  0.00  0.00    -0.303 OA
ATOM     27  H   UNL     1      54.731  64.068  96.198  0.00  0.00    +0.222 HD
ENDBRANCH  22  26
ENDBRANCH  21  22
ENDBRANCH  14  21
ENDBRANCH  13  14
ENDBRANCH   1  13
BRANCH   6  28
ATOM     28  O   UNL     1      51.709  69.145  91.458  0.00  0.00    -0.277 OA
BRANCH  28  29
ATOM     29  P   UNL     1      50.903  69.642  90.035  0.00  0.00    +0.473 P 
ATOM     30  O   UNL     1      51.819  70.483  89.171  0.00  0.00    -0.228 OA
BRANCH  29  31
ATOM     31  O   UNL     1      50.436  68.269  89.166  0.00  0.00    -0.303 OA
ATOM     32  H   UNL     1      51.145  68.148  88.485  0.00  0.00    +0.222 HD
ENDBRANCH  29  31
BRANCH  29  33
ATOM     33  O   UNL     1      49.517  70.528  90.438  0.00  0.00    -0.303 OA
ATOM     34  H   UNL     1      49.775  71.081  91.218  0.00  0.00    +0.222 HD
ENDBRANCH  29  33
ENDBRANCH  28  29
ENDBRANCH   6  28
TORSDOF 16
ENDMDL
