MODEL 10
REMARK VINA RESULT:    -5.822      2.582      4.844
REMARK INTER + INTRA:         -11.696
REMARK INTER:                 -10.149
REMARK INTRA:                  -1.547
REMARK UNBOUND:                -1.620
REMARK  Name = SPQ
REMARK  16 active torsions:
REMARK  status: ('A' for Active; 'I' for Inactive)
REMARK    1  A    between atoms: O_1  and  P_2
REMARK    2  A    between atoms: P_2  and  O_3
REMARK    3  A    between atoms: P_2  and  O_5
REMARK    4  A    between atoms: O_5  and  C_6
REMARK    5  A    between atoms: C_6  and  C_7
REMARK    6  A    between atoms: C_6  and  C_10
REMARK    7  A    between atoms: C_6  and  O_12
REMARK    8  A    between atoms: C_7  and  O_8
REMARK    9  A    between atoms: O_12  and  C_13
REMARK   10  A    between atoms: C_14  and  O_15
REMARK   11  A    between atoms: C_17  and  C_18
REMARK   12  A    between atoms: C_18  and  O_19
REMARK   13  A    between atoms: C_22  and  O_23
REMARK   14  A    between atoms: O_23  and  P_24
REMARK   15  A    between atoms: P_24  and  O_25
REMARK   16  A    between atoms: P_24  and  O_26
REMARK                            x       y       z     vdW  Elec       q    Type
REMARK                         _______ _______ _______ _____ _____    ______ ____
ROOT
ATOM      1  C   UNL     1      52.774  68.556  95.345  0.00  0.00    +0.158 C 
ATOM      2  C   UNL     1      53.840  69.510  94.786  0.00  0.00    +0.177 C 
ATOM      3  C   UNL     1      52.388  69.003  96.763  0.00  0.00    +0.076 C 
ATOM      4  C   UNL     1      53.583  69.291  97.649  0.00  0.00    +0.038 C 
ATOM      5  C   UNL     1      54.791  69.577  97.124  0.00  0.00    +0.018 C 
ATOM      6  C   UNL     1      55.113  69.449  95.655  0.00  0.00    +0.185 C 
ENDROOT
BRANCH   4   7
ATOM      7  C   UNL     1      53.375  69.382  99.114  0.00  0.00    +0.333 C 
ATOM      8  O   UNL     1      53.953  68.570  99.885  0.00  0.00    -0.245 OA
BRANCH   7   9
ATOM      9  O   UNL     1      52.543  70.361  99.654  0.00  0.00    -0.477 OA
ATOM     10  H   UNL     1      51.626  70.125 100.010  0.00  0.00    +0.295 HD
ENDBRANCH   7   9
ENDBRANCH   4   7
BRANCH   2  11
ATOM     11  O   UNL     1      54.142  69.156  93.461  0.00  0.00    -0.386 OA
ATOM     12  H   UNL     1      54.968  68.607  93.493  0.00  0.00    +0.210 HD
ENDBRANCH   2  11
BRANCH   1  13
ATOM     13  O   UNL     1      51.617  68.614  94.518  0.00  0.00    -0.331 OA
BRANCH  13  14
ATOM     14  C   UNL     1      51.181  67.347  94.038  0.00  0.00    +0.307 C 
BRANCH  14  15
ATOM     15  C   UNL     1      52.202  66.324  94.593  0.00  0.00    +0.291 C 
ATOM     16  F   UNL     1      51.553  65.218  95.116  0.00  0.00    -0.243 F 
ENDBRANCH  14  15
BRANCH  14  17
ATOM     17  C   UNL     1      51.223  67.361  92.516  0.00  0.00    +0.368 C 
ATOM     18  O   UNL     1      50.763  66.389  91.857  0.00  0.00    -0.245 OA
BRANCH  17  19
ATOM     19  O   UNL     1      51.695  68.483  91.839  0.00  0.00    -0.477 OA
ATOM     20  H   UNL     1      51.306  68.750  90.942  0.00  0.00    +0.295 HD
ENDBRANCH  17  19
ENDBRANCH  14  17
BRANCH  14  21
ATOM     21  O   UNL     1      49.862  67.095  94.535  0.00  0.00    -0.240 OA
BRANCH  21  22
ATOM     22  P   UNL     1      48.770  68.412  94.361  0.00  0.00    +0.475 P 
ATOM     23  O   UNL     1      49.052  69.229  93.120  0.00  0.00    -0.227 OA
BRANCH  22  24
ATOM     24  O   UNL     1      48.919  69.414  95.715  0.00  0.00    -0.303 OA
ATOM     25  H   UNL     1      49.816  69.823  95.628  0.00  0.00    +0.222 HD
ENDBRANCH  22  24
BRANCH  22  26
ATOM     26  O   UNL     1      47.184  67.828  94.294  0.00  0.00    -0.303 OA
ATOM     27  H   UNL     1      46.742  68.209  95.095  0.00  0.00    +0.222 HD
ENDBRANCH  22  26
ENDBRANCH  21  22
ENDBRANCH  14  21
ENDBRANCH  13  14
ENDBRANCH   1  13
BRANCH   6  28
ATOM     28  O   UNL     1      55.759  68.207  95.439  0.00  0.00    -0.277 OA
BRANCH  28  29
ATOM     29  P   UNL     1      57.337  68.449  94.828  0.00  0.00    +0.473 P 
ATOM     30  O   UNL     1      58.047  67.124  94.648  0.00  0.00    -0.228 OA
BRANCH  29  31
ATOM     31  O   UNL     1      57.228  69.222  93.328  0.00  0.00    -0.303 OA
ATOM     32  H   UNL     1      57.530  70.149  93.500  0.00  0.00    +0.222 HD
ENDBRANCH  29  31
BRANCH  29  33
ATOM     33  O   UNL     1      58.218  69.436  95.886  0.00  0.00    -0.303 OA
ATOM     34  H   UNL     1      59.148  69.099  95.848  0.00  0.00    +0.222 HD
ENDBRANCH  29  33
ENDBRANCH  28  29
ENDBRANCH   6  28
TORSDOF 16
ENDMDL
