MODEL 19
REMARK VINA RESULT:    -5.508      4.150      6.061
REMARK INTER + INTRA:         -11.152
REMARK INTER:                 -10.711
REMARK INTRA:                  -0.441
REMARK UNBOUND:                -1.620
REMARK  Name = SPQ
REMARK  16 active torsions:
REMARK  status: ('A' for Active; 'I' for Inactive)
REMARK    1  A    between atoms: O_1  and  P_2
REMARK    2  A    between atoms: P_2  and  O_3
REMARK    3  A    between atoms: P_2  and  O_5
REMARK    4  A    between atoms: O_5  and  C_6
REMARK    5  A    between atoms: C_6  and  C_7
REMARK    6  A    between atoms: C_6  and  C_10
REMARK    7  A    between atoms: C_6  and  O_12
REMARK    8  A    between atoms: C_7  and  O_8
REMARK    9  A    between atoms: O_12  and  C_13
REMARK   10  A    between atoms: C_14  and  O_15
REMARK   11  A    between atoms: C_17  and  C_18
REMARK   12  A    between atoms: C_18  and  O_19
REMARK   13  A    between atoms: C_22  and  O_23
REMARK   14  A    between atoms: O_23  and  P_24
REMARK   15  A    between atoms: P_24  and  O_25
REMARK   16  A    between atoms: P_24  and  O_26
REMARK                            x       y       z     vdW  Elec       q    Type
REMARK                         _______ _______ _______ _____ _____    ______ ____
ROOT
ATOM      1  C   UNL     1      52.811  67.723  92.141  0.00  0.00    +0.158 C 
ATOM      2  C   UNL     1      54.160  68.186  91.569  0.00  0.00    +0.177 C 
ATOM      3  C   UNL     1      52.348  66.465  91.393  0.00  0.00    +0.076 C 
ATOM      4  C   UNL     1      52.447  66.592  89.886  0.00  0.00    +0.038 C 
ATOM      5  C   UNL     1      53.269  67.491  89.311  0.00  0.00    +0.018 C 
ATOM      6  C   UNL     1      54.002  68.563  90.082  0.00  0.00    +0.185 C 
ENDROOT
BRANCH   4   7
ATOM      7  C   UNL     1      51.715  65.616  89.043  0.00  0.00    +0.333 C 
ATOM      8  O   UNL     1      51.388  65.920  87.864  0.00  0.00    -0.245 OA
BRANCH   7   9
ATOM      9  O   UNL     1      51.383  64.357  89.539  0.00  0.00    -0.477 OA
ATOM     10  H   UNL     1      50.489  63.933  89.325  0.00  0.00    +0.295 HD
ENDBRANCH   7   9
ENDBRANCH   4   7
BRANCH   2  11
ATOM     11  O   UNL     1      54.629  69.289  92.300  0.00  0.00    -0.386 OA
ATOM     12  H   UNL     1      54.417  69.111  93.254  0.00  0.00    +0.210 HD
ENDBRANCH   2  11
BRANCH   1  13
ATOM     13  O   UNL     1      52.977  67.399  93.518  0.00  0.00    -0.331 OA
BRANCH  13  14
ATOM     14  C   UNL     1      51.890  67.800  94.345  0.00  0.00    +0.307 C 
BRANCH  14  15
ATOM     15  C   UNL     1      52.423  68.993  95.176  0.00  0.00    +0.291 C 
ATOM     16  F   UNL     1      53.798  68.910  95.326  0.00  0.00    -0.243 F 
ENDBRANCH  14  15
BRANCH  14  17
ATOM     17  C   UNL     1      51.521  66.643  95.261  0.00  0.00    +0.368 C 
ATOM     18  O   UNL     1      51.181  65.529  94.776  0.00  0.00    -0.245 OA
BRANCH  17  19
ATOM     19  O   UNL     1      51.635  66.779  96.642  0.00  0.00    -0.477 OA
ATOM     20  H   UNL     1      51.981  67.638  97.053  0.00  0.00    +0.295 HD
ENDBRANCH  17  19
ENDBRANCH  14  17
BRANCH  14  21
ATOM     21  O   UNL     1      50.795  68.192  93.509  0.00  0.00    -0.240 OA
BRANCH  21  22
ATOM     22  P   UNL     1      49.263  68.188  94.290  0.00  0.00    +0.475 P 
ATOM     23  O   UNL     1      48.337  69.249  93.739  0.00  0.00    -0.227 OA
BRANCH  22  24
ATOM     24  O   UNL     1      49.502  68.481  95.939  0.00  0.00    -0.303 OA
ATOM     25  H   UNL     1      48.592  68.481  96.329  0.00  0.00    +0.222 HD
ENDBRANCH  22  24
BRANCH  22  26
ATOM     26  O   UNL     1      48.539  66.670  94.111  0.00  0.00    -0.303 OA
ATOM     27  H   UNL     1      49.218  66.122  93.641  0.00  0.00    +0.222 HD
ENDBRANCH  22  26
ENDBRANCH  21  22
ENDBRANCH  14  21
ENDBRANCH  13  14
ENDBRANCH   1  13
BRANCH   6  28
ATOM     28  O   UNL     1      53.268  69.771  89.988  0.00  0.00    -0.277 OA
BRANCH  28  29
ATOM     29  P   UNL     1      53.897  70.761  88.745  0.00  0.00    +0.473 P 
ATOM     30  O   UNL     1      53.501  70.224  87.386  0.00  0.00    -0.228 OA
BRANCH  29  31
ATOM     31  O   UNL     1      53.272  72.322  88.922  0.00  0.00    -0.303 OA
ATOM     32  H   UNL     1      53.170  72.660  87.997  0.00  0.00    +0.222 HD
ENDBRANCH  29  31
BRANCH  29  33
ATOM     33  O   UNL     1      55.585  70.835  88.867  0.00  0.00    -0.303 OA
ATOM     34  H   UNL     1      55.776  71.662  89.375  0.00  0.00    +0.222 HD
ENDBRANCH  29  33
ENDBRANCH  28  29
ENDBRANCH   6  28
TORSDOF 16
ENDMDL
