MODEL 13
REMARK VINA RESULT:    -5.612      4.492      8.796
REMARK INTER + INTRA:         -11.333
REMARK INTER:                 -10.644
REMARK INTRA:                  -0.689
REMARK UNBOUND:                -1.620
REMARK  Name = SPQ
REMARK  16 active torsions:
REMARK  status: ('A' for Active; 'I' for Inactive)
REMARK    1  A    between atoms: O_1  and  P_2
REMARK    2  A    between atoms: P_2  and  O_3
REMARK    3  A    between atoms: P_2  and  O_5
REMARK    4  A    between atoms: O_5  and  C_6
REMARK    5  A    between atoms: C_6  and  C_7
REMARK    6  A    between atoms: C_6  and  C_10
REMARK    7  A    between atoms: C_6  and  O_12
REMARK    8  A    between atoms: C_7  and  O_8
REMARK    9  A    between atoms: O_12  and  C_13
REMARK   10  A    between atoms: C_14  and  O_15
REMARK   11  A    between atoms: C_17  and  C_18
REMARK   12  A    between atoms: C_18  and  O_19
REMARK   13  A    between atoms: C_22  and  O_23
REMARK   14  A    between atoms: O_23  and  P_24
REMARK   15  A    between atoms: P_24  and  O_25
REMARK   16  A    between atoms: P_24  and  O_26
REMARK                            x       y       z     vdW  Elec       q    Type
REMARK                         _______ _______ _______ _____ _____    ______ ____
ROOT
ATOM      1  C   UNL     1      49.940  63.666  90.879  0.00  0.00    +0.158 C 
ATOM      2  C   UNL     1      50.890  62.934  89.918  0.00  0.00    +0.177 C 
ATOM      3  C   UNL     1      49.052  62.638  91.594  0.00  0.00    +0.076 C 
ATOM      4  C   UNL     1      48.430  61.624  90.655  0.00  0.00    +0.038 C 
ATOM      5  C   UNL     1      48.963  61.373  89.443  0.00  0.00    +0.018 C 
ATOM      6  C   UNL     1      50.080  62.191  88.838  0.00  0.00    +0.185 C 
ENDROOT
BRANCH   4   7
ATOM      7  C   UNL     1      47.291  60.811  91.142  0.00  0.00    +0.333 C 
ATOM      8  O   UNL     1      46.365  60.482  90.352  0.00  0.00    -0.245 OA
BRANCH   7   9
ATOM      9  O   UNL     1      47.229  60.399  92.472  0.00  0.00    -0.477 OA
ATOM     10  H   UNL     1      47.345  61.063  93.228  0.00  0.00    +0.295 HD
ENDBRANCH   7   9
ENDBRANCH   4   7
BRANCH   2  11
ATOM     11  O   UNL     1      51.760  63.859  89.319  0.00  0.00    -0.386 OA
ATOM     12  H   UNL     1      51.732  64.681  89.877  0.00  0.00    +0.210 HD
ENDBRANCH   2  11
BRANCH   1  13
ATOM     13  O   UNL     1      50.710  64.360  91.855  0.00  0.00    -0.331 OA
BRANCH  13  14
ATOM     14  C   UNL     1      50.448  65.758  91.916  0.00  0.00    +0.307 C 
BRANCH  14  15
ATOM     15  C   UNL     1      51.718  66.388  92.540  0.00  0.00    +0.291 C 
ATOM     16  F   UNL     1      51.398  67.118  93.673  0.00  0.00    -0.243 F 
ENDBRANCH  14  15
BRANCH  14  17
ATOM     17  C   UNL     1      49.246  65.990  92.821  0.00  0.00    +0.368 C 
ATOM     18  O   UNL     1      48.331  66.786  92.473  0.00  0.00    -0.245 OA
BRANCH  17  19
ATOM     19  O   UNL     1      49.107  65.264  94.000  0.00  0.00    -0.477 OA
ATOM     20  H   UNL     1      49.873  64.706  94.362  0.00  0.00    +0.295 HD
ENDBRANCH  17  19
ENDBRANCH  14  17
BRANCH  14  21
ATOM     21  O   UNL     1      50.221  66.243  90.588  0.00  0.00    -0.240 OA
BRANCH  21  22
ATOM     22  P   UNL     1      50.797  67.838  90.303  0.00  0.00    +0.475 P 
ATOM     23  O   UNL     1      52.288  67.956  90.527  0.00  0.00    -0.227 OA
BRANCH  22  24
ATOM     24  O   UNL     1      50.005  68.891  91.364  0.00  0.00    -0.303 OA
ATOM     25  H   UNL     1      49.274  69.287  90.826  0.00  0.00    +0.222 HD
ENDBRANCH  22  24
BRANCH  22  26
ATOM     26  O   UNL     1      50.435  68.297  88.716  0.00  0.00    -0.303 OA
ATOM     27  H   UNL     1      49.471  68.526  88.735  0.00  0.00    +0.222 HD
ENDBRANCH  22  26
ENDBRANCH  21  22
ENDBRANCH  14  21
ENDBRANCH  13  14
ENDBRANCH   1  13
BRANCH   6  28
ATOM     28  O   UNL     1      49.516  63.140  87.949  0.00  0.00    -0.277 OA
BRANCH  28  29
ATOM     29  P   UNL     1      50.061  62.865  86.353  0.00  0.00    +0.473 P 
ATOM     30  O   UNL     1      51.529  63.208  86.225  0.00  0.00    -0.228 OA
BRANCH  29  31
ATOM     31  O   UNL     1      49.844  61.230  85.977  0.00  0.00    -0.303 OA
ATOM     32  H   UNL     1      50.416  60.745  86.624  0.00  0.00    +0.222 HD
ENDBRANCH  29  31
BRANCH  29  33
ATOM     33  O   UNL     1      49.153  63.797  85.267  0.00  0.00    -0.303 OA
ATOM     34  H   UNL     1      48.582  64.376  85.832  0.00  0.00    +0.222 HD
ENDBRANCH  29  33
ENDBRANCH  28  29
ENDBRANCH   6  28
TORSDOF 16
ENDMDL
