MODEL 7
REMARK VINA RESULT:    -5.933      4.142      6.016
REMARK INTER + INTRA:         -11.889
REMARK INTER:                 -10.690
REMARK INTRA:                  -1.198
REMARK UNBOUND:                -1.620
REMARK  Name = SPQ
REMARK  16 active torsions:
REMARK  status: ('A' for Active; 'I' for Inactive)
REMARK    1  A    between atoms: O_1  and  P_2
REMARK    2  A    between atoms: P_2  and  O_3
REMARK    3  A    between atoms: P_2  and  O_5
REMARK    4  A    between atoms: O_5  and  C_6
REMARK    5  A    between atoms: C_6  and  C_7
REMARK    6  A    between atoms: C_6  and  C_10
REMARK    7  A    between atoms: C_6  and  O_12
REMARK    8  A    between atoms: C_7  and  O_8
REMARK    9  A    between atoms: O_12  and  C_13
REMARK   10  A    between atoms: C_14  and  O_15
REMARK   11  A    between atoms: C_17  and  C_18
REMARK   12  A    between atoms: C_18  and  O_19
REMARK   13  A    between atoms: C_22  and  O_23
REMARK   14  A    between atoms: O_23  and  P_24
REMARK   15  A    between atoms: P_24  and  O_25
REMARK   16  A    between atoms: P_24  and  O_26
REMARK                            x       y       z     vdW  Elec       q    Type
REMARK                         _______ _______ _______ _____ _____    ______ ____
ROOT
ATOM      1  C   UNL     1      53.104  68.626  91.737  0.00  0.00    +0.158 C 
ATOM      2  C   UNL     1      52.302  67.419  92.246  0.00  0.00    +0.177 C 
ATOM      3  C   UNL     1      54.294  68.875  92.676  0.00  0.00    +0.076 C 
ATOM      4  C   UNL     1      53.913  68.874  94.143  0.00  0.00    +0.038 C 
ATOM      5  C   UNL     1      52.790  68.267  94.574  0.00  0.00    +0.018 C 
ATOM      6  C   UNL     1      51.732  67.716  93.648  0.00  0.00    +0.185 C 
ENDROOT
BRANCH   4   7
ATOM      7  C   UNL     1      54.867  69.445  95.124  0.00  0.00    +0.333 C 
ATOM      8  O   UNL     1      55.007  68.907  96.255  0.00  0.00    -0.245 OA
BRANCH   7   9
ATOM      9  O   UNL     1      55.618  70.575  94.809  0.00  0.00    -0.477 OA
ATOM     10  H   UNL     1      56.432  70.509  94.212  0.00  0.00    +0.295 HD
ENDBRANCH   7   9
ENDBRANCH   4   7
BRANCH   2  11
ATOM     11  O   UNL     1      51.258  67.135  91.351  0.00  0.00    -0.386 OA
ATOM     12  H   UNL     1      51.198  66.145  91.288  0.00  0.00    +0.210 HD
ENDBRANCH   2  11
BRANCH   1  13
ATOM     13  O   UNL     1      53.604  68.337  90.436  0.00  0.00    -0.331 OA
BRANCH  13  14
ATOM     14  C   UNL     1      53.326  69.345  89.469  0.00  0.00    +0.307 C 
BRANCH  14  15
ATOM     15  C   UNL     1      51.867  69.787  89.744  0.00  0.00    +0.291 C 
ATOM     16  F   UNL     1      51.729  71.154  89.577  0.00  0.00    -0.243 F 
ENDBRANCH  14  15
BRANCH  14  17
ATOM     17  C   UNL     1      53.439  68.733  88.080  0.00  0.00    +0.368 C 
ATOM     18  O   UNL     1      53.630  67.494  87.943  0.00  0.00    -0.245 OA
BRANCH  17  19
ATOM     19  O   UNL     1      53.249  69.523  86.950  0.00  0.00    -0.477 OA
ATOM     20  H   UNL     1      52.534  70.242  86.931  0.00  0.00    +0.295 HD
ENDBRANCH  17  19
ENDBRANCH  14  17
BRANCH  14  21
ATOM     21  O   UNL     1      54.245  70.427  89.655  0.00  0.00    -0.240 OA
BRANCH  21  22
ATOM     22  P   UNL     1      55.881  70.046  89.284  0.00  0.00    +0.475 P 
ATOM     23  O   UNL     1      56.857  70.871  90.092  0.00  0.00    -0.227 OA
BRANCH  22  24
ATOM     24  O   UNL     1      56.142  70.350  87.641  0.00  0.00    -0.303 OA
ATOM     25  H   UNL     1      56.987  69.879  87.429  0.00  0.00    +0.222 HD
ENDBRANCH  22  24
BRANCH  22  26
ATOM     26  O   UNL     1      56.162  68.404  89.581  0.00  0.00    -0.303 OA
ATOM     27  H   UNL     1      55.428  68.130  90.188  0.00  0.00    +0.222 HD
ENDBRANCH  22  26
ENDBRANCH  21  22
ENDBRANCH  14  21
ENDBRANCH  13  14
ENDBRANCH   1  13
BRANCH   6  28
ATOM     28  O   UNL     1      50.691  68.670  93.530  0.00  0.00    -0.277 OA
BRANCH  28  29
ATOM     29  P   UNL     1      49.326  68.186  94.438  0.00  0.00    +0.473 P 
ATOM     30  O   UNL     1      49.609  68.291  95.921  0.00  0.00    -0.228 OA
BRANCH  29  31
ATOM     31  O   UNL     1      48.029  69.199  94.052  0.00  0.00    -0.303 OA
ATOM     32  H   UNL     1      47.378  69.067  94.787  0.00  0.00    +0.222 HD
ENDBRANCH  29  31
BRANCH  29  33
ATOM     33  O   UNL     1      48.909  66.592  94.042  0.00  0.00    -0.303 OA
ATOM     34  H   UNL     1      49.728  66.194  93.655  0.00  0.00    +0.222 HD
ENDBRANCH  29  33
ENDBRANCH  28  29
ENDBRANCH   6  28
TORSDOF 16
ENDMDL
