MODEL 9
REMARK VINA RESULT:    -5.910      2.869      5.409
REMARK INTER + INTRA:         -11.849
REMARK INTER:                 -10.081
REMARK INTRA:                  -1.768
REMARK UNBOUND:                -1.620
REMARK  Name = SPQ
REMARK  16 active torsions:
REMARK  status: ('A' for Active; 'I' for Inactive)
REMARK    1  A    between atoms: O_1  and  P_2
REMARK    2  A    between atoms: P_2  and  O_3
REMARK    3  A    between atoms: P_2  and  O_5
REMARK    4  A    between atoms: O_5  and  C_6
REMARK    5  A    between atoms: C_6  and  C_7
REMARK    6  A    between atoms: C_6  and  C_10
REMARK    7  A    between atoms: C_6  and  O_12
REMARK    8  A    between atoms: C_7  and  O_8
REMARK    9  A    between atoms: O_12  and  C_13
REMARK   10  A    between atoms: C_14  and  O_15
REMARK   11  A    between atoms: C_17  and  C_18
REMARK   12  A    between atoms: C_18  and  O_19
REMARK   13  A    between atoms: C_22  and  O_23
REMARK   14  A    between atoms: O_23  and  P_24
REMARK   15  A    between atoms: P_24  and  O_25
REMARK   16  A    between atoms: P_24  and  O_26
REMARK                            x       y       z     vdW  Elec       q    Type
REMARK                         _______ _______ _______ _____ _____    ______ ____
ROOT
ATOM      1  C   UNL     1      53.259  67.610  94.547  0.00  0.00    +0.158 C 
ATOM      2  C   UNL     1      53.397  66.193  93.969  0.00  0.00    +0.177 C 
ATOM      3  C   UNL     1      54.102  68.582  93.709  0.00  0.00    +0.076 C 
ATOM      4  C   UNL     1      55.508  68.084  93.443  0.00  0.00    +0.038 C 
ATOM      5  C   UNL     1      55.812  66.773  93.521  0.00  0.00    +0.018 C 
ATOM      6  C   UNL     1      54.864  65.727  94.055  0.00  0.00    +0.185 C 
ENDROOT
BRANCH   4   7
ATOM      7  C   UNL     1      56.525  69.051  92.967  0.00  0.00    +0.333 C 
ATOM      8  O   UNL     1      56.383  69.618  91.850  0.00  0.00    -0.245 OA
BRANCH   7   9
ATOM      9  O   UNL     1      57.644  69.345  93.743  0.00  0.00    -0.477 OA
ATOM     10  H   UNL     1      58.523  68.866  93.591  0.00  0.00    +0.295 HD
ENDBRANCH   7   9
ENDBRANCH   4   7
BRANCH   2  11
ATOM     11  O   UNL     1      52.567  65.311  94.680  0.00  0.00    -0.386 OA
ATOM     12  H   UNL     1      51.693  65.769  94.793  0.00  0.00    +0.210 HD
ENDBRANCH   2  11
BRANCH   1  13
ATOM     13  O   UNL     1      51.894  68.011  94.474  0.00  0.00    -0.331 OA
BRANCH  13  14
ATOM     14  C   UNL     1      51.411  68.644  95.654  0.00  0.00    +0.307 C 
BRANCH  14  15
ATOM     15  C   UNL     1      52.164  69.996  95.732  0.00  0.00    +0.291 C 
ATOM     16  F   UNL     1      51.403  70.943  96.398  0.00  0.00    -0.243 F 
ENDBRANCH  14  15
BRANCH  14  17
ATOM     17  C   UNL     1      51.763  67.775  96.853  0.00  0.00    +0.368 C 
ATOM     18  O   UNL     1      51.432  66.559  96.877  0.00  0.00    -0.245 OA
BRANCH  17  19
ATOM     19  O   UNL     1      52.525  68.296  97.896  0.00  0.00    -0.477 OA
ATOM     20  H   UNL     1      53.516  68.098  97.965  0.00  0.00    +0.295 HD
ENDBRANCH  17  19
ENDBRANCH  14  17
BRANCH  14  21
ATOM     21  O   UNL     1      49.998  68.837  95.528  0.00  0.00    -0.240 OA
BRANCH  21  22
ATOM     22  P   UNL     1      49.272  67.968  94.233  0.00  0.00    +0.475 P 
ATOM     23  O   UNL     1      47.762  68.014  94.290  0.00  0.00    -0.227 OA
BRANCH  22  24
ATOM     24  O   UNL     1      49.770  66.354  94.326  0.00  0.00    -0.303 OA
ATOM     25  H   UNL     1      50.188  66.169  93.449  0.00  0.00    +0.222 HD
ENDBRANCH  22  24
BRANCH  22  26
ATOM     26  O   UNL     1      49.793  68.609  92.757  0.00  0.00    -0.303 OA
ATOM     27  H   UNL     1      49.076  68.372  92.115  0.00  0.00    +0.222 HD
ENDBRANCH  22  26
ENDBRANCH  21  22
ENDBRANCH  14  21
ENDBRANCH  13  14
ENDBRANCH   1  13
BRANCH   6  28
ATOM     28  O   UNL     1      55.188  65.472  95.411  0.00  0.00    -0.277 OA
BRANCH  28  29
ATOM     29  P   UNL     1      56.093  64.029  95.551  0.00  0.00    +0.473 P 
ATOM     30  O   UNL     1      56.102  63.277  94.237  0.00  0.00    -0.228 OA
BRANCH  29  31
ATOM     31  O   UNL     1      57.683  64.422  95.970  0.00  0.00    -0.303 OA
ATOM     32  H   UNL     1      57.734  64.260  96.946  0.00  0.00    +0.222 HD
ENDBRANCH  29  31
BRANCH  29  33
ATOM     33  O   UNL     1      55.434  63.053  96.769  0.00  0.00    -0.303 OA
ATOM     34  H   UNL     1      55.586  63.547  97.613  0.00  0.00    +0.222 HD
ENDBRANCH  29  33
ENDBRANCH  28  29
ENDBRANCH   6  28
TORSDOF 16
ENDMDL
