MODEL 1
REMARK VINA RESULT:    -6.167      0.000      0.000
REMARK INTER + INTRA:         -12.294
REMARK INTER:                 -10.674
REMARK INTRA:                  -1.620
REMARK UNBOUND:                -1.620
REMARK  Name = SPQ
REMARK  16 active torsions:
REMARK  status: ('A' for Active; 'I' for Inactive)
REMARK    1  A    between atoms: O_1  and  P_2
REMARK    2  A    between atoms: P_2  and  O_3
REMARK    3  A    between atoms: P_2  and  O_5
REMARK    4  A    between atoms: O_5  and  C_6
REMARK    5  A    between atoms: C_6  and  C_7
REMARK    6  A    between atoms: C_6  and  C_10
REMARK    7  A    between atoms: C_6  and  O_12
REMARK    8  A    between atoms: C_7  and  O_8
REMARK    9  A    between atoms: O_12  and  C_13
REMARK   10  A    between atoms: C_14  and  O_15
REMARK   11  A    between atoms: C_17  and  C_18
REMARK   12  A    between atoms: C_18  and  O_19
REMARK   13  A    between atoms: C_22  and  O_23
REMARK   14  A    between atoms: O_23  and  P_24
REMARK   15  A    between atoms: P_24  and  O_25
REMARK   16  A    between atoms: P_24  and  O_26
REMARK                            x       y       z     vdW  Elec       q    Type
REMARK                         _______ _______ _______ _____ _____    ______ ____
ROOT
ATOM      1  C   UNL     1      51.434  67.548  94.727  0.00  0.00    +0.158 C 
ATOM      2  C   UNL     1      51.170  68.038  96.159  0.00  0.00    +0.177 C 
ATOM      3  C   UNL     1      52.790  66.828  94.680  0.00  0.00    +0.076 C 
ATOM      4  C   UNL     1      53.905  67.601  95.358  0.00  0.00    +0.038 C 
ATOM      5  C   UNL     1      53.640  68.547  96.280  0.00  0.00    +0.018 C 
ATOM      6  C   UNL     1      52.250  69.056  96.578  0.00  0.00    +0.185 C 
ENDROOT
BRANCH   4   7
ATOM      7  C   UNL     1      55.307  67.208  95.084  0.00  0.00    +0.333 C 
ATOM      8  O   UNL     1      55.879  67.602  94.031  0.00  0.00    -0.245 OA
BRANCH   7   9
ATOM      9  O   UNL     1      56.009  66.406  95.981  0.00  0.00    -0.477 OA
ATOM     10  H   UNL     1      55.851  65.407  96.019  0.00  0.00    +0.295 HD
ENDBRANCH   7   9
ENDBRANCH   4   7
BRANCH   2  11
ATOM     11  O   UNL     1      49.898  68.627  96.229  0.00  0.00    -0.386 OA
ATOM     12  H   UNL     1      49.402  68.151  96.946  0.00  0.00    +0.210 HD
ENDBRANCH   2  11
BRANCH   1  13
ATOM     13  O   UNL     1      50.415  66.625  94.356  0.00  0.00    -0.331 OA
BRANCH  13  14
ATOM     14  C   UNL     1      49.728  66.969  93.158  0.00  0.00    +0.307 C 
BRANCH  14  15
ATOM     15  C   UNL     1      50.339  68.320  92.707  0.00  0.00    +0.291 C 
ATOM     16  F   UNL     1      50.212  68.482  91.337  0.00  0.00    -0.243 F 
ENDBRANCH  14  15
BRANCH  14  17
ATOM     17  C   UNL     1      48.249  67.140  93.476  0.00  0.00    +0.368 C 
ATOM     18  O   UNL     1      47.873  68.007  94.311  0.00  0.00    -0.245 OA
BRANCH  17  19
ATOM     19  O   UNL     1      47.295  66.398  92.786  0.00  0.00    -0.477 OA
ATOM     20  H   UNL     1      46.420  66.819  92.493  0.00  0.00    +0.295 HD
ENDBRANCH  17  19
ENDBRANCH  14  17
BRANCH  14  21
ATOM     21  O   UNL     1      49.953  65.942  92.186  0.00  0.00    -0.240 OA
BRANCH  21  22
ATOM     22  P   UNL     1      50.067  64.355  92.840  0.00  0.00    +0.475 P 
ATOM     23  O   UNL     1      49.609  63.299  91.859  0.00  0.00    -0.227 OA
BRANCH  22  24
ATOM     24  O   UNL     1      49.093  64.272  94.220  0.00  0.00    -0.303 OA
ATOM     25  H   UNL     1      48.455  65.023  94.124  0.00  0.00    +0.222 HD
ENDBRANCH  22  24
BRANCH  22  26
ATOM     26  O   UNL     1      51.668  64.041  93.288  0.00  0.00    -0.303 OA
ATOM     27  H   UNL     1      51.887  63.180  92.848  0.00  0.00    +0.222 HD
ENDBRANCH  22  26
ENDBRANCH  21  22
ENDBRANCH  14  21
ENDBRANCH  13  14
ENDBRANCH   1  13
BRANCH   6  28
ATOM     28  O   UNL     1      52.047  70.263  95.864  0.00  0.00    -0.277 OA
BRANCH  28  29
ATOM     29  P   UNL     1      52.012  71.595  96.935  0.00  0.00    +0.473 P 
ATOM     30  O   UNL     1      52.897  72.712  96.425  0.00  0.00    -0.228 OA
BRANCH  29  31
ATOM     31  O   UNL     1      50.423  72.161  97.047  0.00  0.00    -0.303 OA
ATOM     32  H   UNL     1      49.858  71.359  96.914  0.00  0.00    +0.222 HD
ENDBRANCH  29  31
BRANCH  29  33
ATOM     33  O   UNL     1      52.526  71.109  98.475  0.00  0.00    -0.303 OA
ATOM     34  H   UNL     1      52.357  70.134  98.513  0.00  0.00    +0.222 HD
ENDBRANCH  29  33
ENDBRANCH  28  29
ENDBRANCH   6  28
TORSDOF 16
ENDMDL
