MODEL 16
REMARK VINA RESULT:    -5.591      4.391      8.196
REMARK INTER + INTRA:         -11.297
REMARK INTER:                  -9.935
REMARK INTRA:                  -1.362
REMARK UNBOUND:                -1.620
REMARK  Name = SPQ
REMARK  16 active torsions:
REMARK  status: ('A' for Active; 'I' for Inactive)
REMARK    1  A    between atoms: O_1  and  P_2
REMARK    2  A    between atoms: P_2  and  O_3
REMARK    3  A    between atoms: P_2  and  O_5
REMARK    4  A    between atoms: O_5  and  C_6
REMARK    5  A    between atoms: C_6  and  C_7
REMARK    6  A    between atoms: C_6  and  C_10
REMARK    7  A    between atoms: C_6  and  O_12
REMARK    8  A    between atoms: C_7  and  O_8
REMARK    9  A    between atoms: O_12  and  C_13
REMARK   10  A    between atoms: C_14  and  O_15
REMARK   11  A    between atoms: C_17  and  C_18
REMARK   12  A    between atoms: C_18  and  O_19
REMARK   13  A    between atoms: C_22  and  O_23
REMARK   14  A    between atoms: O_23  and  P_24
REMARK   15  A    between atoms: P_24  and  O_25
REMARK   16  A    between atoms: P_24  and  O_26
REMARK                            x       y       z     vdW  Elec       q    Type
REMARK                         _______ _______ _______ _____ _____    ______ ____
ROOT
ATOM      1  C   UNL     1      50.474  63.785  91.202  0.00  0.00    +0.158 C 
ATOM      2  C   UNL     1      51.218  64.229  89.934  0.00  0.00    +0.177 C 
ATOM      3  C   UNL     1      51.086  62.472  91.714  0.00  0.00    +0.076 C 
ATOM      4  C   UNL     1      51.272  61.432  90.627  0.00  0.00    +0.038 C 
ATOM      5  C   UNL     1      51.338  61.782  89.327  0.00  0.00    +0.018 C 
ATOM      6  C   UNL     1      51.046  63.174  88.823  0.00  0.00    +0.185 C 
ENDROOT
BRANCH   4   7
ATOM      7  C   UNL     1      51.510  60.025  91.026  0.00  0.00    +0.333 C 
ATOM      8  O   UNL     1      52.642  59.673  91.457  0.00  0.00    -0.245 OA
BRANCH   7   9
ATOM      9  O   UNL     1      50.493  59.077  90.932  0.00  0.00    -0.477 OA
ATOM     10  H   UNL     1      50.594  58.162  91.352  0.00  0.00    +0.295 HD
ENDBRANCH   7   9
ENDBRANCH   4   7
BRANCH   2  11
ATOM     11  O   UNL     1      50.718  65.469  89.504  0.00  0.00    -0.386 OA
ATOM     12  H   UNL     1      49.728  65.397  89.514  0.00  0.00    +0.210 HD
ENDBRANCH   2  11
BRANCH   1  13
ATOM     13  O   UNL     1      50.631  64.782  92.207  0.00  0.00    -0.331 OA
BRANCH  13  14
ATOM     14  C   UNL     1      49.484  64.963  93.030  0.00  0.00    +0.307 C 
BRANCH  14  15
ATOM     15  C   UNL     1      48.595  63.719  92.776  0.00  0.00    +0.291 C 
ATOM     16  F   UNL     1      48.400  63.008  93.948  0.00  0.00    -0.243 F 
ENDBRANCH  14  15
BRANCH  14  17
ATOM     17  C   UNL     1      48.760  66.227  92.588  0.00  0.00    +0.368 C 
ATOM     18  O   UNL     1      49.286  66.998  91.740  0.00  0.00    -0.245 OA
BRANCH  17  19
ATOM     19  O   UNL     1      47.476  66.498  93.053  0.00  0.00    -0.477 OA
ATOM     20  H   UNL     1      47.019  65.876  93.711  0.00  0.00    +0.295 HD
ENDBRANCH  17  19
ENDBRANCH  14  17
BRANCH  14  21
ATOM     21  O   UNL     1      49.904  65.036  94.397  0.00  0.00    -0.240 OA
BRANCH  21  22
ATOM     22  P   UNL     1      51.472  65.704  94.626  0.00  0.00    +0.475 P 
ATOM     23  O   UNL     1      51.760  65.999  96.081  0.00  0.00    -0.227 OA
BRANCH  22  24
ATOM     24  O   UNL     1      51.573  67.147  93.750  0.00  0.00    -0.303 OA
ATOM     25  H   UNL     1      51.230  66.920  92.850  0.00  0.00    +0.222 HD
ENDBRANCH  22  24
BRANCH  22  26
ATOM     26  O   UNL     1      52.638  64.631  94.034  0.00  0.00    -0.303 OA
ATOM     27  H   UNL     1      52.719  63.936  94.737  0.00  0.00    +0.222 HD
ENDBRANCH  22  26
ENDBRANCH  21  22
ENDBRANCH  14  21
ENDBRANCH  13  14
ENDBRANCH   1  13
BRANCH   6  28
ATOM     28  O   UNL     1      49.711  63.215  88.351  0.00  0.00    -0.277 OA
BRANCH  28  29
ATOM     29  P   UNL     1      49.646  62.800  86.694  0.00  0.00    +0.473 P 
ATOM     30  O   UNL     1      51.031  62.493  86.168  0.00  0.00    -0.228 OA
BRANCH  29  31
ATOM     31  O   UNL     1      48.673  61.429  86.514  0.00  0.00    -0.303 OA
ATOM     32  H   UNL     1      48.548  61.085  87.434  0.00  0.00    +0.222 HD
ENDBRANCH  29  31
BRANCH  29  33
ATOM     33  O   UNL     1      48.962  64.073  85.809  0.00  0.00    -0.303 OA
ATOM     34  H   UNL     1      49.721  64.511  85.349  0.00  0.00    +0.222 HD
ENDBRANCH  29  33
ENDBRANCH  28  29
ENDBRANCH   6  28
TORSDOF 16
ENDMDL
