MODEL 15
REMARK VINA RESULT:    -5.600      5.190      8.888
REMARK INTER + INTRA:         -11.312
REMARK INTER:                  -9.684
REMARK INTRA:                  -1.628
REMARK UNBOUND:                -1.620
REMARK  Name = SPQ
REMARK  16 active torsions:
REMARK  status: ('A' for Active; 'I' for Inactive)
REMARK    1  A    between atoms: O_1  and  P_2
REMARK    2  A    between atoms: P_2  and  O_3
REMARK    3  A    between atoms: P_2  and  O_5
REMARK    4  A    between atoms: O_5  and  C_6
REMARK    5  A    between atoms: C_6  and  C_7
REMARK    6  A    between atoms: C_6  and  C_10
REMARK    7  A    between atoms: C_6  and  O_12
REMARK    8  A    between atoms: C_7  and  O_8
REMARK    9  A    between atoms: O_12  and  C_13
REMARK   10  A    between atoms: C_14  and  O_15
REMARK   11  A    between atoms: C_17  and  C_18
REMARK   12  A    between atoms: C_18  and  O_19
REMARK   13  A    between atoms: C_22  and  O_23
REMARK   14  A    between atoms: O_23  and  P_24
REMARK   15  A    between atoms: P_24  and  O_25
REMARK   16  A    between atoms: P_24  and  O_26
REMARK                            x       y       z     vdW  Elec       q    Type
REMARK                         _______ _______ _______ _____ _____    ______ ____
ROOT
ATOM      1  C   UNL     1      52.497  65.754  89.300  0.00  0.00    +0.158 C 
ATOM      2  C   UNL     1      52.829  64.632  88.305  0.00  0.00    +0.177 C 
ATOM      3  C   UNL     1      52.563  65.199  90.730  0.00  0.00    +0.076 C 
ATOM      4  C   UNL     1      51.821  63.889  90.902  0.00  0.00    +0.038 C 
ATOM      5  C   UNL     1      51.555  63.092  89.848  0.00  0.00    +0.018 C 
ATOM      6  C   UNL     1      51.784  63.503  88.413  0.00  0.00    +0.185 C 
ENDROOT
BRANCH   4   7
ATOM      7  C   UNL     1      51.502  63.429  92.274  0.00  0.00    +0.333 C 
ATOM      8  O   UNL     1      50.843  62.368  92.448  0.00  0.00    -0.245 OA
BRANCH   7   9
ATOM      9  O   UNL     1      51.926  64.157  93.384  0.00  0.00    -0.477 OA
ATOM     10  H   UNL     1      51.278  64.735  93.905  0.00  0.00    +0.295 HD
ENDBRANCH   7   9
ENDBRANCH   4   7
BRANCH   2  11
ATOM     11  O   UNL     1      52.849  65.149  87.000  0.00  0.00    -0.386 OA
ATOM     12  H   UNL     1      53.796  65.137  86.702  0.00  0.00    +0.210 HD
ENDBRANCH   2  11
BRANCH   1  13
ATOM     13  O   UNL     1      53.462  66.793  89.169  0.00  0.00    -0.331 OA
BRANCH  13  14
ATOM     14  C   UNL     1      52.904  68.077  88.913  0.00  0.00    +0.307 C 
BRANCH  14  15
ATOM     15  C   UNL     1      51.395  67.827  88.667  0.00  0.00    +0.291 C 
ATOM     16  F   UNL     1      50.625  68.599  89.521  0.00  0.00    -0.243 F 
ENDBRANCH  14  15
BRANCH  14  17
ATOM     17  C   UNL     1      53.553  68.651  87.662  0.00  0.00    +0.368 C 
ATOM     18  O   UNL     1      54.261  67.918  86.918  0.00  0.00    -0.245 OA
BRANCH  17  19
ATOM     19  O   UNL     1      53.304  69.967  87.284  0.00  0.00    -0.477 OA
ATOM     20  H   UNL     1      53.696  70.347  86.430  0.00  0.00    +0.295 HD
ENDBRANCH  17  19
ENDBRANCH  14  17
BRANCH  14  21
ATOM     21  O   UNL     1      53.117  68.909  90.058  0.00  0.00    -0.240 OA
BRANCH  21  22
ATOM     22  P   UNL     1      54.767  69.279  90.373  0.00  0.00    +0.475 P 
ATOM     23  O   UNL     1      55.069  69.327  91.854  0.00  0.00    -0.227 OA
BRANCH  22  24
ATOM     24  O   UNL     1      55.115  70.791  89.700  0.00  0.00    -0.303 OA
ATOM     25  H   UNL     1      55.778  70.604  88.989  0.00  0.00    +0.222 HD
ENDBRANCH  22  24
BRANCH  22  26
ATOM     26  O   UNL     1      55.758  68.121  89.640  0.00  0.00    -0.303 OA
ATOM     27  H   UNL     1      56.526  68.637  89.283  0.00  0.00    +0.222 HD
ENDBRANCH  22  26
ENDBRANCH  21  22
ENDBRANCH  14  21
ENDBRANCH  13  14
ENDBRANCH   1  13
BRANCH   6  28
ATOM     28  O   UNL     1      50.557  63.957  87.870  0.00  0.00    -0.277 OA
BRANCH  28  29
ATOM     29  P   UNL     1      50.148  63.056  86.475  0.00  0.00    +0.473 P 
ATOM     30  O   UNL     1      49.519  61.735  86.861  0.00  0.00    -0.228 OA
BRANCH  29  31
ATOM     31  O   UNL     1      49.039  63.945  85.559  0.00  0.00    -0.303 OA
ATOM     32  H   UNL     1      48.151  63.646  85.878  0.00  0.00    +0.222 HD
ENDBRANCH  29  31
BRANCH  29  33
ATOM     33  O   UNL     1      51.534  62.785  85.539  0.00  0.00    -0.303 OA
ATOM     34  H   UNL     1      51.768  61.834  85.686  0.00  0.00    +0.222 HD
ENDBRANCH  29  33
ENDBRANCH  28  29
ENDBRANCH   6  28
TORSDOF 16
ENDMDL
