MODEL 11
REMARK VINA RESULT:    -5.769      4.239      6.974
REMARK INTER + INTRA:         -11.605
REMARK INTER:                  -9.809
REMARK INTRA:                  -1.797
REMARK UNBOUND:                -1.620
REMARK  Name = SPQ
REMARK  16 active torsions:
REMARK  status: ('A' for Active; 'I' for Inactive)
REMARK    1  A    between atoms: O_1  and  P_2
REMARK    2  A    between atoms: P_2  and  O_3
REMARK    3  A    between atoms: P_2  and  O_5
REMARK    4  A    between atoms: O_5  and  C_6
REMARK    5  A    between atoms: C_6  and  C_7
REMARK    6  A    between atoms: C_6  and  C_10
REMARK    7  A    between atoms: C_6  and  O_12
REMARK    8  A    between atoms: C_7  and  O_8
REMARK    9  A    between atoms: O_12  and  C_13
REMARK   10  A    between atoms: C_14  and  O_15
REMARK   11  A    between atoms: C_17  and  C_18
REMARK   12  A    between atoms: C_18  and  O_19
REMARK   13  A    between atoms: C_22  and  O_23
REMARK   14  A    between atoms: O_23  and  P_24
REMARK   15  A    between atoms: P_24  and  O_25
REMARK   16  A    between atoms: P_24  and  O_26
REMARK                            x       y       z     vdW  Elec       q    Type
REMARK                         _______ _______ _______ _____ _____    ______ ____
ROOT
ATOM      1  C   UNL     1      53.637  68.391  92.178  0.00  0.00    +0.158 C 
ATOM      2  C   UNL     1      54.394  67.829  90.966  0.00  0.00    +0.177 C 
ATOM      3  C   UNL     1      52.146  68.513  91.831  0.00  0.00    +0.076 C 
ATOM      4  C   UNL     1      51.892  69.180  90.494  0.00  0.00    +0.038 C 
ATOM      5  C   UNL     1      52.844  69.220  89.541  0.00  0.00    +0.018 C 
ATOM      6  C   UNL     1      54.274  68.796  89.772  0.00  0.00    +0.185 C 
ENDROOT
BRANCH   4   7
ATOM      7  C   UNL     1      50.529  69.679  90.197  0.00  0.00    +0.333 C 
ATOM      8  O   UNL     1      49.533  68.920  90.341  0.00  0.00    -0.245 OA
BRANCH   7   9
ATOM      9  O   UNL     1      50.330  70.987  89.759  0.00  0.00    -0.477 OA
ATOM     10  H   UNL     1      49.835  71.658  90.333  0.00  0.00    +0.295 HD
ENDBRANCH   7   9
ENDBRANCH   4   7
BRANCH   2  11
ATOM     11  O   UNL     1      55.745  67.639  91.301  0.00  0.00    -0.386 OA
ATOM     12  H   UNL     1      56.278  67.939  90.519  0.00  0.00    +0.210 HD
ENDBRANCH   2  11
BRANCH   1  13
ATOM     13  O   UNL     1      53.777  67.492  93.273  0.00  0.00    -0.331 OA
BRANCH  13  14
ATOM     14  C   UNL     1      53.991  68.131  94.527  0.00  0.00    +0.307 C 
BRANCH  14  15
ATOM     15  C   UNL     1      52.664  68.863  94.847  0.00  0.00    +0.291 C 
ATOM     16  F   UNL     1      52.438  68.894  96.213  0.00  0.00    -0.243 F 
ENDBRANCH  14  15
BRANCH  14  17
ATOM     17  C   UNL     1      55.124  69.136  94.375  0.00  0.00    +0.368 C 
ATOM     18  O   UNL     1      54.955  70.341  94.706  0.00  0.00    -0.245 OA
BRANCH  17  19
ATOM     19  O   UNL     1      56.381  68.715  93.949  0.00  0.00    -0.477 OA
ATOM     20  H   UNL     1      56.476  67.984  93.253  0.00  0.00    +0.295 HD
ENDBRANCH  17  19
ENDBRANCH  14  17
BRANCH  14  21
ATOM     21  O   UNL     1      54.288  67.132  95.509  0.00  0.00    -0.240 OA
BRANCH  21  22
ATOM     22  P   UNL     1      54.656  65.582  94.861  0.00  0.00    +0.475 P 
ATOM     23  O   UNL     1      55.194  64.636  95.912  0.00  0.00    -0.227 OA
BRANCH  22  24
ATOM     24  O   UNL     1      55.825  65.770  93.653  0.00  0.00    -0.303 OA
ATOM     25  H   UNL     1      56.674  65.907  94.143  0.00  0.00    +0.222 HD
ENDBRANCH  22  24
BRANCH  22  26
ATOM     26  O   UNL     1      53.267  64.912  94.168  0.00  0.00    -0.303 OA
ATOM     27  H   UNL     1      53.603  64.180  93.590  0.00  0.00    +0.222 HD
ENDBRANCH  22  26
ENDBRANCH  21  22
ENDBRANCH  14  21
ENDBRANCH  13  14
ENDBRANCH   1  13
BRANCH   6  28
ATOM     28  O   UNL     1      55.053  69.950  90.034  0.00  0.00    -0.277 OA
BRANCH  28  29
ATOM     29  P   UNL     1      55.587  70.659  88.573  0.00  0.00    +0.473 P 
ATOM     30  O   UNL     1      55.703  69.613  87.485  0.00  0.00    -0.228 OA
BRANCH  29  31
ATOM     31  O   UNL     1      54.464  71.829  88.093  0.00  0.00    -0.303 OA
ATOM     32  H   UNL     1      54.882  72.275  87.314  0.00  0.00    +0.222 HD
ENDBRANCH  29  31
BRANCH  29  33
ATOM     33  O   UNL     1      57.087  71.410  88.812  0.00  0.00    -0.303 OA
ATOM     34  H   UNL     1      57.514  70.914  89.555  0.00  0.00    +0.222 HD
ENDBRANCH  29  33
ENDBRANCH  28  29
ENDBRANCH   6  28
TORSDOF 16
ENDMDL
