MODEL 20
REMARK VINA RESULT:    -5.464      2.904      5.147
REMARK INTER + INTRA:         -11.076
REMARK INTER:                  -9.099
REMARK INTRA:                  -1.977
REMARK UNBOUND:                -1.620
REMARK  Name = SPQ
REMARK  16 active torsions:
REMARK  status: ('A' for Active; 'I' for Inactive)
REMARK    1  A    between atoms: O_1  and  P_2
REMARK    2  A    between atoms: P_2  and  O_3
REMARK    3  A    between atoms: P_2  and  O_5
REMARK    4  A    between atoms: O_5  and  C_6
REMARK    5  A    between atoms: C_6  and  C_7
REMARK    6  A    between atoms: C_6  and  C_10
REMARK    7  A    between atoms: C_6  and  O_12
REMARK    8  A    between atoms: C_7  and  O_8
REMARK    9  A    between atoms: O_12  and  C_13
REMARK   10  A    between atoms: C_14  and  O_15
REMARK   11  A    between atoms: C_17  and  C_18
REMARK   12  A    between atoms: C_18  and  O_19
REMARK   13  A    between atoms: C_22  and  O_23
REMARK   14  A    between atoms: O_23  and  P_24
REMARK   15  A    between atoms: P_24  and  O_25
REMARK   16  A    between atoms: P_24  and  O_26
REMARK                            x       y       z     vdW  Elec       q    Type
REMARK                         _______ _______ _______ _____ _____    ______ ____
ROOT
ATOM      1  C   UNL     1      53.621  67.851  94.771  0.00  0.00    +0.158 C 
ATOM      2  C   UNL     1      54.504  66.857  94.001  0.00  0.00    +0.177 C 
ATOM      3  C   UNL     1      54.352  69.197  94.881  0.00  0.00    +0.076 C 
ATOM      4  C   UNL     1      55.792  69.064  95.335  0.00  0.00    +0.038 C 
ATOM      5  C   UNL     1      56.466  67.905  95.195  0.00  0.00    +0.018 C 
ATOM      6  C   UNL     1      55.817  66.610  94.769  0.00  0.00    +0.185 C 
ENDROOT
BRANCH   4   7
ATOM      7  C   UNL     1      56.497  70.273  95.822  0.00  0.00    +0.333 C 
ATOM      8  O   UNL     1      57.355  70.178  96.741  0.00  0.00    -0.245 OA
BRANCH   7   9
ATOM      9  O   UNL     1      56.224  71.524  95.272  0.00  0.00    -0.477 OA
ATOM     10  H   UNL     1      55.906  72.289  95.854  0.00  0.00    +0.295 HD
ENDBRANCH   7   9
ENDBRANCH   4   7
BRANCH   2  11
ATOM     11  O   UNL     1      53.811  65.648  93.825  0.00  0.00    -0.386 OA
ATOM     12  H   UNL     1      54.001  65.342  92.900  0.00  0.00    +0.210 HD
ENDBRANCH   2  11
BRANCH   1  13
ATOM     13  O   UNL     1      52.408  68.049  94.053  0.00  0.00    -0.331 OA
BRANCH  13  14
ATOM     14  C   UNL     1      51.237  67.977  94.859  0.00  0.00    +0.307 C 
BRANCH  14  15
ATOM     15  C   UNL     1      51.192  69.314  95.639  0.00  0.00    +0.291 C 
ATOM     16  F   UNL     1      49.883  69.716  95.849  0.00  0.00    -0.243 F 
ENDBRANCH  14  15
BRANCH  14  17
ATOM     17  C   UNL     1      51.379  66.808  95.823  0.00  0.00    +0.368 C 
ATOM     18  O   UNL     1      51.498  67.016  97.062  0.00  0.00    -0.245 OA
BRANCH  17  19
ATOM     19  O   UNL     1      51.297  65.500  95.355  0.00  0.00    -0.477 OA
ATOM     20  H   UNL     1      51.942  65.157  94.652  0.00  0.00    +0.295 HD
ENDBRANCH  17  19
ENDBRANCH  14  17
BRANCH  14  21
ATOM     21  O   UNL     1      50.097  67.831  94.004  0.00  0.00    -0.240 OA
BRANCH  21  22
ATOM     22  P   UNL     1      50.476  67.493  92.361  0.00  0.00    +0.475 P 
ATOM     23  O   UNL     1      49.240  67.222  91.533  0.00  0.00    -0.227 OA
BRANCH  22  24
ATOM     24  O   UNL     1      51.473  66.127  92.311  0.00  0.00    -0.303 OA
ATOM     25  H   UNL     1      50.866  65.366  92.495  0.00  0.00    +0.222 HD
ENDBRANCH  22  24
BRANCH  22  26
ATOM     26  O   UNL     1      51.318  68.799  91.693  0.00  0.00    -0.303 OA
ATOM     27  H   UNL     1      50.994  69.590  92.196  0.00  0.00    +0.222 HD
ENDBRANCH  22  26
ENDBRANCH  21  22
ENDBRANCH  14  21
ENDBRANCH  13  14
ENDBRANCH   1  13
BRANCH   6  28
ATOM     28  O   UNL     1      55.536  65.842  95.926  0.00  0.00    -0.277 OA
BRANCH  28  29
ATOM     29  P   UNL     1      56.237  64.288  95.801  0.00  0.00    +0.473 P 
ATOM     30  O   UNL     1      57.701  64.332  96.184  0.00  0.00    -0.228 OA
BRANCH  29  31
ATOM     31  O   UNL     1      55.427  63.239  96.851  0.00  0.00    -0.303 OA
ATOM     32  H   UNL     1      56.146  62.754  97.328  0.00  0.00    +0.222 HD
ENDBRANCH  29  31
BRANCH  29  33
ATOM     33  O   UNL     1      56.072  63.708  94.218  0.00  0.00    -0.303 OA
ATOM     34  H   UNL     1      55.292  64.189  93.842  0.00  0.00    +0.222 HD
ENDBRANCH  29  33
ENDBRANCH  28  29
ENDBRANCH   6  28
TORSDOF 16
ENDMDL
