MODEL 5
REMARK VINA RESULT:    -5.997      5.498      8.696
REMARK INTER + INTRA:         -11.999
REMARK INTER:                 -10.289
REMARK INTRA:                  -1.710
REMARK UNBOUND:                -1.620
REMARK  Name = SPQ
REMARK  16 active torsions:
REMARK  status: ('A' for Active; 'I' for Inactive)
REMARK    1  A    between atoms: O_1  and  P_2
REMARK    2  A    between atoms: P_2  and  O_3
REMARK    3  A    between atoms: P_2  and  O_5
REMARK    4  A    between atoms: O_5  and  C_6
REMARK    5  A    between atoms: C_6  and  C_7
REMARK    6  A    between atoms: C_6  and  C_10
REMARK    7  A    between atoms: C_6  and  O_12
REMARK    8  A    between atoms: C_7  and  O_8
REMARK    9  A    between atoms: O_12  and  C_13
REMARK   10  A    between atoms: C_14  and  O_15
REMARK   11  A    between atoms: C_17  and  C_18
REMARK   12  A    between atoms: C_18  and  O_19
REMARK   13  A    between atoms: C_22  and  O_23
REMARK   14  A    between atoms: O_23  and  P_24
REMARK   15  A    between atoms: P_24  and  O_25
REMARK   16  A    between atoms: P_24  and  O_26
REMARK                            x       y       z     vdW  Elec       q    Type
REMARK                         _______ _______ _______ _____ _____    ______ ____
ROOT
ATOM      1  C   UNL     1      52.173  65.263  89.419  0.00  0.00    +0.158 C 
ATOM      2  C   UNL     1      52.368  64.263  88.269  0.00  0.00    +0.177 C 
ATOM      3  C   UNL     1      52.440  64.556  90.756  0.00  0.00    +0.076 C 
ATOM      4  C   UNL     1      51.735  63.221  90.881  0.00  0.00    +0.038 C 
ATOM      5  C   UNL     1      51.328  62.539  89.792  0.00  0.00    +0.018 C 
ATOM      6  C   UNL     1      51.354  63.109  88.394  0.00  0.00    +0.185 C 
ENDROOT
BRANCH   4   7
ATOM      7  C   UNL     1      51.612  62.607  92.225  0.00  0.00    +0.333 C 
ATOM      8  O   UNL     1      50.619  62.877  92.954  0.00  0.00    -0.245 OA
BRANCH   7   9
ATOM      9  O   UNL     1      52.585  61.728  92.696  0.00  0.00    -0.477 OA
ATOM     10  H   UNL     1      52.348  60.992  93.349  0.00  0.00    +0.295 HD
ENDBRANCH   7   9
ENDBRANCH   4   7
BRANCH   2  11
ATOM     11  O   UNL     1      52.204  64.920  87.039  0.00  0.00    -0.386 OA
ATOM     12  H   UNL     1      52.508  65.856  87.172  0.00  0.00    +0.210 HD
ENDBRANCH   2  11
BRANCH   1  13
ATOM     13  O   UNL     1      53.106  66.329  89.272  0.00  0.00    -0.331 OA
BRANCH  13  14
ATOM     14  C   UNL     1      52.589  67.607  89.625  0.00  0.00    +0.307 C 
BRANCH  14  15
ATOM     15  C   UNL     1      52.645  67.660  91.172  0.00  0.00    +0.291 C 
ATOM     16  F   UNL     1      52.673  68.971  91.617  0.00  0.00    -0.243 F 
ENDBRANCH  14  15
BRANCH  14  17
ATOM     17  C   UNL     1      51.148  67.700  89.146  0.00  0.00    +0.368 C 
ATOM     18  O   UNL     1      50.213  67.887  89.972  0.00  0.00    -0.245 OA
BRANCH  17  19
ATOM     19  O   UNL     1      50.858  67.661  87.785  0.00  0.00    -0.477 OA
ATOM     20  H   UNL     1      50.071  68.175  87.405  0.00  0.00    +0.295 HD
ENDBRANCH  17  19
ENDBRANCH  14  17
BRANCH  14  21
ATOM     21  O   UNL     1      53.416  68.617  89.036  0.00  0.00    -0.240 OA
BRANCH  21  22
ATOM     22  P   UNL     1      54.465  68.048  87.798  0.00  0.00    +0.475 P 
ATOM     23  O   UNL     1      55.197  69.175  87.105  0.00  0.00    -0.227 OA
BRANCH  22  24
ATOM     24  O   UNL     1      53.539  67.218  86.651  0.00  0.00    -0.303 OA
ATOM     25  H   UNL     1      52.833  67.860  86.385  0.00  0.00    +0.222 HD
ENDBRANCH  22  24
BRANCH  22  26
ATOM     26  O   UNL     1      55.593  66.975  88.458  0.00  0.00    -0.303 OA
ATOM     27  H   UNL     1      56.473  67.326  88.167  0.00  0.00    +0.222 HD
ENDBRANCH  22  26
ENDBRANCH  21  22
ENDBRANCH  14  21
ENDBRANCH  13  14
ENDBRANCH   1  13
BRANCH   6  28
ATOM     28  O   UNL     1      50.061  63.595  88.079  0.00  0.00    -0.277 OA
BRANCH  28  29
ATOM     29  P   UNL     1      49.439  62.798  86.701  0.00  0.00    +0.473 P 
ATOM     30  O   UNL     1      50.429  61.774  86.186  0.00  0.00    -0.228 OA
BRANCH  29  31
ATOM     31  O   UNL     1      48.006  62.008  87.130  0.00  0.00    -0.303 OA
ATOM     32  H   UNL     1      47.710  62.457  87.962  0.00  0.00    +0.222 HD
ENDBRANCH  29  31
BRANCH  29  33
ATOM     33  O   UNL     1      49.094  63.929  85.488  0.00  0.00    -0.303 OA
ATOM     34  H   UNL     1      48.145  63.779  85.251  0.00  0.00    +0.222 HD
ENDBRANCH  29  33
ENDBRANCH  28  29
ENDBRANCH   6  28
TORSDOF 16
ENDMDL
