MODEL 4
REMARK VINA RESULT:    -6.011      3.394      6.912
REMARK INTER + INTRA:         -12.024
REMARK INTER:                 -10.889
REMARK INTRA:                  -1.135
REMARK UNBOUND:                -1.620
REMARK  Name = SPQ
REMARK  16 active torsions:
REMARK  status: ('A' for Active; 'I' for Inactive)
REMARK    1  A    between atoms: O_1  and  P_2
REMARK    2  A    between atoms: P_2  and  O_3
REMARK    3  A    between atoms: P_2  and  O_5
REMARK    4  A    between atoms: O_5  and  C_6
REMARK    5  A    between atoms: C_6  and  C_7
REMARK    6  A    between atoms: C_6  and  C_10
REMARK    7  A    between atoms: C_6  and  O_12
REMARK    8  A    between atoms: C_7  and  O_8
REMARK    9  A    between atoms: O_12  and  C_13
REMARK   10  A    between atoms: C_14  and  O_15
REMARK   11  A    between atoms: C_17  and  C_18
REMARK   12  A    between atoms: C_18  and  O_19
REMARK   13  A    between atoms: C_22  and  O_23
REMARK   14  A    between atoms: O_23  and  P_24
REMARK   15  A    between atoms: P_24  and  O_25
REMARK   16  A    between atoms: P_24  and  O_26
REMARK                            x       y       z     vdW  Elec       q    Type
REMARK                         _______ _______ _______ _____ _____    ______ ____
ROOT
ATOM      1  C   UNL     1      51.264  67.468  91.654  0.00  0.00    +0.158 C 
ATOM      2  C   UNL     1      51.849  66.205  92.304  0.00  0.00    +0.177 C 
ATOM      3  C   UNL     1      50.725  68.399  92.751  0.00  0.00    +0.076 C 
ATOM      4  C   UNL     1      49.858  67.687  93.771  0.00  0.00    +0.038 C 
ATOM      5  C   UNL     1      49.945  66.355  93.956  0.00  0.00    +0.018 C 
ATOM      6  C   UNL     1      50.744  65.440  93.060  0.00  0.00    +0.185 C 
ENDROOT
BRANCH   4   7
ATOM      7  C   UNL     1      48.997  68.501  94.660  0.00  0.00    +0.333 C 
ATOM      8  O   UNL     1      49.188  68.493  95.906  0.00  0.00    -0.245 OA
BRANCH   7   9
ATOM      9  O   UNL     1      47.971  69.284  94.134  0.00  0.00    -0.477 OA
ATOM     10  H   UNL     1      48.141  70.238  93.843  0.00  0.00    +0.295 HD
ENDBRANCH   7   9
ENDBRANCH   4   7
BRANCH   2  11
ATOM     11  O   UNL     1      52.415  65.385  91.315  0.00  0.00    -0.386 OA
ATOM     12  H   UNL     1      52.908  64.665  91.789  0.00  0.00    +0.210 HD
ENDBRANCH   2  11
BRANCH   1  13
ATOM     13  O   UNL     1      52.296  68.148  90.947  0.00  0.00    -0.331 OA
BRANCH  13  14
ATOM     14  C   UNL     1      51.866  68.758  89.735  0.00  0.00    +0.307 C 
BRANCH  14  15
ATOM     15  C   UNL     1      50.458  69.327  90.038  0.00  0.00    +0.291 C 
ATOM     16  F   UNL     1      50.519  70.692  90.264  0.00  0.00    -0.243 F 
ENDBRANCH  14  15
BRANCH  14  17
ATOM     17  C   UNL     1      51.780  67.689  88.654  0.00  0.00    +0.368 C 
ATOM     18  O   UNL     1      52.611  66.740  88.630  0.00  0.00    -0.245 OA
BRANCH  17  19
ATOM     19  O   UNL     1      50.735  67.705  87.735  0.00  0.00    -0.477 OA
ATOM     20  H   UNL     1      50.062  66.948  87.700  0.00  0.00    +0.295 HD
ENDBRANCH  17  19
ENDBRANCH  14  17
BRANCH  14  21
ATOM     21  O   UNL     1      52.788  69.797  89.389  0.00  0.00    -0.240 OA
BRANCH  21  22
ATOM     22  P   UNL     1      54.374  69.581  90.017  0.00  0.00    +0.475 P 
ATOM     23  O   UNL     1      55.298  70.717  89.639  0.00  0.00    -0.227 OA
BRANCH  22  24
ATOM     24  O   UNL     1      55.005  68.140  89.396  0.00  0.00    -0.303 OA
ATOM     25  H   UNL     1      55.811  67.961  89.943  0.00  0.00    +0.222 HD
ENDBRANCH  22  24
BRANCH  22  26
ATOM     26  O   UNL     1      54.306  69.458  91.703  0.00  0.00    -0.303 OA
ATOM     27  H   UNL     1      54.562  68.520  91.896  0.00  0.00    +0.222 HD
ENDBRANCH  22  26
ENDBRANCH  21  22
ENDBRANCH  14  21
ENDBRANCH  13  14
ENDBRANCH   1  13
BRANCH   6  28
ATOM     28  O   UNL     1      49.867  64.847  92.118  0.00  0.00    -0.277 OA
BRANCH  28  29
ATOM     29  P   UNL     1      49.554  63.218  92.531  0.00  0.00    +0.473 P 
ATOM     30  O   UNL     1      48.887  62.496  91.379  0.00  0.00    -0.228 OA
BRANCH  29  31
ATOM     31  O   UNL     1      51.021  62.454  92.882  0.00  0.00    -0.303 OA
ATOM     32  H   UNL     1      50.885  61.511  92.613  0.00  0.00    +0.222 HD
ENDBRANCH  29  31
BRANCH  29  33
ATOM     33  O   UNL     1      48.563  63.153  93.904  0.00  0.00    -0.303 OA
ATOM     34  H   UNL     1      48.654  64.039  94.336  0.00  0.00    +0.222 HD
ENDBRANCH  29  33
ENDBRANCH  28  29
ENDBRANCH   6  28
TORSDOF 16
ENDMDL
