MODEL 2
REMARK VINA RESULT:    -4.621      1.523      2.891
REMARK INTER + INTRA:          -5.162
REMARK INTER:                  -5.162
REMARK INTRA:                   0.000
REMARK UNBOUND:                 0.000
REMARK  Name = RIP
REMARK  4 active torsions:
REMARK  status: ('A' for Active; 'I' for Inactive)
REMARK    1  A    between atoms: C_1  and  O_6
REMARK    2  A    between atoms: C_2  and  O_7
REMARK    3  A    between atoms: C_3  and  O_8
REMARK    4  A    between atoms: C_4  and  O_9
REMARK                            x       y       z     vdW  Elec       q    Type
REMARK                         _______ _______ _______ _____ _____    ______ ____
ROOT
ATOM      1  C   UNL     1      62.400  24.961   5.526  0.00  0.00    +0.279 C 
ATOM      2  C   UNL     1      63.557  25.970   5.266  0.00  0.00    +0.201 C 
ATOM      3  C   UNL     1      63.540  27.126   6.284  0.00  0.00    +0.178 C 
ATOM      4  C   UNL     1      62.090  27.576   6.510  0.00  0.00    +0.171 C 
ATOM      5  C   UNL     1      61.213  26.383   6.973  0.00  0.00    +0.197 C 
ATOM      6  O   UNL     1      61.848  25.121   6.823  0.00  0.00    -0.346 OA
ENDROOT
BRANCH   1   7
ATOM      7  O   UNL     1      61.395  25.081   4.548  0.00  0.00    -0.365 OA
ATOM      8  H   UNL     1      61.377  26.034   4.271  0.00  0.00    +0.213 HD
ENDBRANCH   1   7
BRANCH   2   9
ATOM      9  O   UNL     1      64.802  25.320   5.320  0.00  0.00    -0.384 OA
ATOM     10  H   UNL     1      64.923  25.012   6.257  0.00  0.00    +0.210 HD
ENDBRANCH   2   9
BRANCH   3  11
ATOM     11  O   UNL     1      64.116  26.705   7.497  0.00  0.00    -0.386 OA
ATOM     12  H   UNL     1      65.099  26.807   7.401  0.00  0.00    +0.210 HD
ENDBRANCH   3  11
BRANCH   4  13
ATOM     13  O   UNL     1      62.055  28.615   7.454  0.00  0.00    -0.387 OA
ATOM     14  H   UNL     1      61.255  29.165   7.242  0.00  0.00    +0.210 HD
ENDBRANCH   4  13
TORSDOF 4
ENDMDL
