MODEL 5
REMARK VINA RESULT:    -4.417      1.351      2.708
REMARK INTER + INTRA:          -4.934
REMARK INTER:                  -4.934
REMARK INTRA:                   0.000
REMARK UNBOUND:                 0.000
REMARK  Name = RIP
REMARK  4 active torsions:
REMARK  status: ('A' for Active; 'I' for Inactive)
REMARK    1  A    between atoms: C_1  and  O_6
REMARK    2  A    between atoms: C_2  and  O_7
REMARK    3  A    between atoms: C_3  and  O_8
REMARK    4  A    between atoms: C_4  and  O_9
REMARK                            x       y       z     vdW  Elec       q    Type
REMARK                         _______ _______ _______ _____ _____    ______ ____
ROOT
ATOM      1  C   UNL     1      62.988  27.151   6.867  0.00  0.00    +0.279 C 
ATOM      2  C   UNL     1      61.817  28.176   6.809  0.00  0.00    +0.201 C 
ATOM      3  C   UNL     1      60.502  27.509   6.366  0.00  0.00    +0.178 C 
ATOM      4  C   UNL     1      60.794  26.529   5.222  0.00  0.00    +0.171 C 
ATOM      5  C   UNL     1      61.857  25.484   5.655  0.00  0.00    +0.197 C 
ATOM      6  O   UNL     1      62.513  25.814   6.871  0.00  0.00    -0.346 OA
ENDROOT
BRANCH   1   7
ATOM      7  O   UNL     1      63.885  27.348   5.800  0.00  0.00    -0.365 OA
ATOM      8  H   UNL     1      64.729  26.888   6.046  0.00  0.00    +0.213 HD
ENDBRANCH   1   7
BRANCH   2   9
ATOM      9  O   UNL     1      61.632  28.786   8.062  0.00  0.00    -0.384 OA
ATOM     10  H   UNL     1      62.535  29.024   8.400  0.00  0.00    +0.210 HD
ENDBRANCH   2   9
BRANCH   3  11
ATOM     11  O   UNL     1      59.918  26.832   7.453  0.00  0.00    -0.386 OA
ATOM     12  H   UNL     1      59.197  26.257   7.083  0.00  0.00    +0.210 HD
ENDBRANCH   3  11
BRANCH   4  13
ATOM     13  O   UNL     1      59.608  25.895   4.821  0.00  0.00    -0.387 OA
ATOM     14  H   UNL     1      58.882  26.261   5.391  0.00  0.00    +0.210 HD
ENDBRANCH   4  13
TORSDOF 4
ENDMDL
