MODEL 7
REMARK VINA RESULT:    -4.396      2.647      4.396
REMARK INTER + INTRA:          -4.910
REMARK INTER:                  -4.910
REMARK INTRA:                   0.000
REMARK UNBOUND:                 0.000
REMARK  Name = RIP
REMARK  4 active torsions:
REMARK  status: ('A' for Active; 'I' for Inactive)
REMARK    1  A    between atoms: C_1  and  O_6
REMARK    2  A    between atoms: C_2  and  O_7
REMARK    3  A    between atoms: C_3  and  O_8
REMARK    4  A    between atoms: C_4  and  O_9
REMARK                            x       y       z     vdW  Elec       q    Type
REMARK                         _______ _______ _______ _____ _____    ______ ____
ROOT
ATOM      1  C   UNL     1      61.453  30.670   6.665  0.00  0.00    +0.279 C 
ATOM      2  C   UNL     1      60.662  30.862   7.993  0.00  0.00    +0.201 C 
ATOM      3  C   UNL     1      60.271  29.510   8.620  0.00  0.00    +0.178 C 
ATOM      4  C   UNL     1      59.801  28.558   7.512  0.00  0.00    +0.171 C 
ATOM      5  C   UNL     1      60.898  28.398   6.427  0.00  0.00    +0.197 C 
ATOM      6  O   UNL     1      61.949  29.347   6.539  0.00  0.00    -0.346 OA
ENDROOT
BRANCH   1   7
ATOM      7  O   UNL     1      60.659  31.003   5.552  0.00  0.00    -0.365 OA
ATOM      8  H   UNL     1      60.088  31.767   5.824  0.00  0.00    +0.213 HD
ENDBRANCH   1   7
BRANCH   2   9
ATOM      9  O   UNL     1      61.419  31.603   8.917  0.00  0.00    -0.384 OA
ATOM     10  H   UNL     1      61.729  32.419   8.443  0.00  0.00    +0.210 HD
ENDBRANCH   2   9
BRANCH   3  11
ATOM     11  O   UNL     1      61.374  28.961   9.301  0.00  0.00    -0.386 OA
ATOM     12  H   UNL     1      61.492  29.488  10.134  0.00  0.00    +0.210 HD
ENDBRANCH   3  11
BRANCH   4  13
ATOM     13  O   UNL     1      59.463  27.312   8.065  0.00  0.00    -0.387 OA
ATOM     14  H   UNL     1      59.173  26.736   7.310  0.00  0.00    +0.210 HD
ENDBRANCH   4  13
TORSDOF 4
ENDMDL
