MODEL 9
REMARK VINA RESULT:    -4.382      1.793      2.105
REMARK INTER + INTRA:          -4.894
REMARK INTER:                  -4.894
REMARK INTRA:                   0.000
REMARK UNBOUND:                 0.000
REMARK  Name = RIP
REMARK  4 active torsions:
REMARK  status: ('A' for Active; 'I' for Inactive)
REMARK    1  A    between atoms: C_1  and  O_6
REMARK    2  A    between atoms: C_2  and  O_7
REMARK    3  A    between atoms: C_3  and  O_8
REMARK    4  A    between atoms: C_4  and  O_9
REMARK                            x       y       z     vdW  Elec       q    Type
REMARK                         _______ _______ _______ _____ _____    ______ ____
ROOT
ATOM      1  C   UNL     1      62.184  25.681   5.695  0.00  0.00    +0.279 C 
ATOM      2  C   UNL     1      61.303  24.413   5.491  0.00  0.00    +0.201 C 
ATOM      3  C   UNL     1      59.830  24.782   5.229  0.00  0.00    +0.178 C 
ATOM      4  C   UNL     1      59.423  25.926   6.167  0.00  0.00    +0.171 C 
ATOM      5  C   UNL     1      60.366  27.144   5.988  0.00  0.00    +0.197 C 
ATOM      6  O   UNL     1      61.531  26.851   5.228  0.00  0.00    -0.346 OA
ENDROOT
BRANCH   1   7
ATOM      7  O   UNL     1      62.550  25.831   7.045  0.00  0.00    -0.365 OA
ATOM      8  H   UNL     1      61.715  26.007   7.551  0.00  0.00    +0.213 HD
ENDBRANCH   1   7
BRANCH   2   9
ATOM      9  O   UNL     1      61.787  23.641   4.422  0.00  0.00    -0.384 OA
ATOM     10  H   UNL     1      61.237  23.874   3.628  0.00  0.00    +0.210 HD
ENDBRANCH   2   9
BRANCH   3  11
ATOM     11  O   UNL     1      59.666  25.170   3.886  0.00  0.00    -0.386 OA
ATOM     12  H   UNL     1      60.227  25.976   3.746  0.00  0.00    +0.210 HD
ENDBRANCH   3  11
BRANCH   4  13
ATOM     13  O   UNL     1      58.089  26.290   5.925  0.00  0.00    -0.387 OA
ATOM     14  H   UNL     1      57.985  27.223   6.247  0.00  0.00    +0.210 HD
ENDBRANCH   4  13
TORSDOF 4
ENDMDL
