MODEL 17
REMARK VINA RESULT:    -4.113      2.367      3.918
REMARK INTER + INTRA:          -4.594
REMARK INTER:                  -4.594
REMARK INTRA:                   0.000
REMARK UNBOUND:                 0.000
REMARK  Name = RIP
REMARK  4 active torsions:
REMARK  status: ('A' for Active; 'I' for Inactive)
REMARK    1  A    between atoms: C_1  and  O_6
REMARK    2  A    between atoms: C_2  and  O_7
REMARK    3  A    between atoms: C_3  and  O_8
REMARK    4  A    between atoms: C_4  and  O_9
REMARK                            x       y       z     vdW  Elec       q    Type
REMARK                         _______ _______ _______ _____ _____    ______ ____
ROOT
ATOM      1  C   UNL     1      61.131  28.132   7.129  0.00  0.00    +0.279 C 
ATOM      2  C   UNL     1      60.348  28.898   8.237  0.00  0.00    +0.201 C 
ATOM      3  C   UNL     1      59.248  28.020   8.862  0.00  0.00    +0.178 C 
ATOM      4  C   UNL     1      58.542  27.230   7.753  0.00  0.00    +0.171 C 
ATOM      5  C   UNL     1      59.565  26.388   6.945  0.00  0.00    +0.197 C 
ATOM      6  O   UNL     1      60.918  26.732   7.211  0.00  0.00    -0.346 OA
ENDROOT
BRANCH   1   7
ATOM      7  O   UNL     1      60.787  28.605   5.849  0.00  0.00    -0.365 OA
ATOM      8  H   UNL     1      59.870  28.977   5.916  0.00  0.00    +0.213 HD
ENDBRANCH   1   7
BRANCH   2   9
ATOM      9  O   UNL     1      61.222  29.339   9.245  0.00  0.00    -0.384 OA
ATOM     10  H   UNL     1      61.186  28.662   9.971  0.00  0.00    +0.210 HD
ENDBRANCH   2   9
BRANCH   3  11
ATOM     11  O   UNL     1      59.814  27.141   9.804  0.00  0.00    -0.386 OA
ATOM     12  H   UNL     1      59.882  26.252   9.367  0.00  0.00    +0.210 HD
ENDBRANCH   3  11
BRANCH   4  13
ATOM     13  O   UNL     1      57.550  26.406   8.309  0.00  0.00    -0.387 OA
ATOM     14  H   UNL     1      57.646  25.516   7.880  0.00  0.00    +0.210 HD
ENDBRANCH   4  13
TORSDOF 4
ENDMDL
