MODEL 10
REMARK VINA RESULT:    -4.321      1.885      3.480
REMARK INTER + INTRA:          -4.826
REMARK INTER:                  -4.826
REMARK INTRA:                   0.000
REMARK UNBOUND:                 0.000
REMARK  Name = RIP
REMARK  4 active torsions:
REMARK  status: ('A' for Active; 'I' for Inactive)
REMARK    1  A    between atoms: C_1  and  O_6
REMARK    2  A    between atoms: C_2  and  O_7
REMARK    3  A    between atoms: C_3  and  O_8
REMARK    4  A    between atoms: C_4  and  O_9
REMARK                            x       y       z     vdW  Elec       q    Type
REMARK                         _______ _______ _______ _____ _____    ______ ____
ROOT
ATOM      1  C   UNL     1      60.033  26.878   5.003  0.00  0.00    +0.279 C 
ATOM      2  C   UNL     1      59.232  28.091   5.564  0.00  0.00    +0.201 C 
ATOM      3  C   UNL     1      60.062  28.896   6.582  0.00  0.00    +0.178 C 
ATOM      4  C   UNL     1      60.826  27.923   7.490  0.00  0.00    +0.171 C 
ATOM      5  C   UNL     1      61.711  26.968   6.647  0.00  0.00    +0.197 C 
ATOM      6  O   UNL     1      61.423  27.007   5.257  0.00  0.00    -0.346 OA
ENDROOT
BRANCH   1   7
ATOM      7  O   UNL     1      59.550  25.666   5.532  0.00  0.00    -0.365 OA
ATOM      8  H   UNL     1      58.626  25.551   5.188  0.00  0.00    +0.213 HD
ENDBRANCH   1   7
BRANCH   2   9
ATOM      9  O   UNL     1      58.825  28.939   4.519  0.00  0.00    -0.384 OA
ATOM     10  H   UNL     1      58.704  29.842   4.915  0.00  0.00    +0.210 HD
ENDBRANCH   2   9
BRANCH   3  11
ATOM     11  O   UNL     1      60.961  29.741   5.905  0.00  0.00    -0.386 OA
ATOM     12  H   UNL     1      60.499  30.610   5.774  0.00  0.00    +0.210 HD
ENDBRANCH   3  11
BRANCH   4  13
ATOM     13  O   UNL     1      61.606  28.642   8.410  0.00  0.00    -0.387 OA
ATOM     14  H   UNL     1      62.364  29.029   7.899  0.00  0.00    +0.210 HD
ENDBRANCH   4  13
TORSDOF 4
ENDMDL
