MODEL 14
REMARK VINA RESULT:    -4.242      2.094      3.589
REMARK INTER + INTRA:          -4.738
REMARK INTER:                  -4.738
REMARK INTRA:                   0.000
REMARK UNBOUND:                 0.000
REMARK  Name = RIP
REMARK  4 active torsions:
REMARK  status: ('A' for Active; 'I' for Inactive)
REMARK    1  A    between atoms: C_1  and  O_6
REMARK    2  A    between atoms: C_2  and  O_7
REMARK    3  A    between atoms: C_3  and  O_8
REMARK    4  A    between atoms: C_4  and  O_9
REMARK                            x       y       z     vdW  Elec       q    Type
REMARK                         _______ _______ _______ _____ _____    ______ ____
ROOT
ATOM      1  C   UNL     1      59.740  24.325   5.350  0.00  0.00    +0.279 C 
ATOM      2  C   UNL     1      61.282  24.370   5.130  0.00  0.00    +0.201 C 
ATOM      3  C   UNL     1      61.902  25.648   5.725  0.00  0.00    +0.178 C 
ATOM      4  C   UNL     1      60.991  26.842   5.414  0.00  0.00    +0.171 C 
ATOM      5  C   UNL     1      59.556  26.591   5.949  0.00  0.00    +0.197 C 
ATOM      6  O   UNL     1      59.328  25.246   6.347  0.00  0.00    -0.346 OA
ENDROOT
BRANCH   1   7
ATOM      7  O   UNL     1      59.051  24.564   4.147  0.00  0.00    -0.365 OA
ATOM      8  H   UNL     1      59.527  25.302   3.685  0.00  0.00    +0.213 HD
ENDBRANCH   1   7
BRANCH   2   9
ATOM      9  O   UNL     1      61.896  23.243   5.702  0.00  0.00    -0.384 OA
ATOM     10  H   UNL     1      61.354  22.995   6.497  0.00  0.00    +0.210 HD
ENDBRANCH   2   9
BRANCH   3  11
ATOM     11  O   UNL     1      62.057  25.501   7.116  0.00  0.00    -0.386 OA
ATOM     12  H   UNL     1      62.957  25.853   7.346  0.00  0.00    +0.210 HD
ENDBRANCH   3  11
BRANCH   4  13
ATOM     13  O   UNL     1      61.531  28.013   5.970  0.00  0.00    -0.387 OA
ATOM     14  H   UNL     1      62.083  27.731   6.746  0.00  0.00    +0.210 HD
ENDBRANCH   4  13
TORSDOF 4
ENDMDL
