MODEL 13
REMARK VINA RESULT:    -4.250      1.674      1.979
REMARK INTER + INTRA:          -4.747
REMARK INTER:                  -4.747
REMARK INTRA:                   0.000
REMARK UNBOUND:                 0.000
REMARK  Name = RIP
REMARK  4 active torsions:
REMARK  status: ('A' for Active; 'I' for Inactive)
REMARK    1  A    between atoms: C_1  and  O_6
REMARK    2  A    between atoms: C_2  and  O_7
REMARK    3  A    between atoms: C_3  and  O_8
REMARK    4  A    between atoms: C_4  and  O_9
REMARK                            x       y       z     vdW  Elec       q    Type
REMARK                         _______ _______ _______ _____ _____    ______ ____
ROOT
ATOM      1  C   UNL     1      61.791  28.112   7.078  0.00  0.00    +0.279 C 
ATOM      2  C   UNL     1      61.341  26.665   6.718  0.00  0.00    +0.201 C 
ATOM      3  C   UNL     1      60.174  26.669   5.712  0.00  0.00    +0.178 C 
ATOM      4  C   UNL     1      59.177  27.768   6.100  0.00  0.00    +0.171 C 
ATOM      5  C   UNL     1      59.884  29.148   6.172  0.00  0.00    +0.197 C 
ATOM      6  O   UNL     1      61.302  29.060   6.142  0.00  0.00    -0.346 OA
ENDROOT
BRANCH   1   7
ATOM      7  O   UNL     1      61.387  28.458   8.380  0.00  0.00    -0.365 OA
ATOM      8  H   UNL     1      60.504  28.904   8.299  0.00  0.00    +0.213 HD
ENDBRANCH   1   7
BRANCH   2   9
ATOM      9  O   UNL     1      62.414  25.932   6.185  0.00  0.00    -0.384 OA
ATOM     10  H   UNL     1      62.925  26.555   5.603  0.00  0.00    +0.210 HD
ENDBRANCH   2   9
BRANCH   3  11
ATOM     11  O   UNL     1      60.664  26.890   4.411  0.00  0.00    -0.386 OA
ATOM     12  H   UNL     1      60.153  27.654   4.035  0.00  0.00    +0.210 HD
ENDBRANCH   3  11
BRANCH   4  13
ATOM     13  O   UNL     1      58.118  27.800   5.178  0.00  0.00    -0.387 OA
ATOM     14  H   UNL     1      58.454  27.379   4.344  0.00  0.00    +0.210 HD
ENDBRANCH   4  13
TORSDOF 4
ENDMDL
