MODEL 16
REMARK VINA RESULT:    -4.214      3.658      5.454
REMARK INTER + INTRA:          -4.706
REMARK INTER:                  -4.706
REMARK INTRA:                   0.000
REMARK UNBOUND:                 0.000
REMARK  Name = RIP
REMARK  4 active torsions:
REMARK  status: ('A' for Active; 'I' for Inactive)
REMARK    1  A    between atoms: C_1  and  O_6
REMARK    2  A    between atoms: C_2  and  O_7
REMARK    3  A    between atoms: C_3  and  O_8
REMARK    4  A    between atoms: C_4  and  O_9
REMARK                            x       y       z     vdW  Elec       q    Type
REMARK                         _______ _______ _______ _____ _____    ______ ____
ROOT
ATOM      1  C   UNL     1      60.391  31.463   5.851  0.00  0.00    +0.279 C 
ATOM      2  C   UNL     1      60.025  32.135   7.208  0.00  0.00    +0.201 C 
ATOM      3  C   UNL     1      60.658  31.388   8.398  0.00  0.00    +0.178 C 
ATOM      4  C   UNL     1      60.534  29.876   8.167  0.00  0.00    +0.171 C 
ATOM      5  C   UNL     1      61.184  29.473   6.818  0.00  0.00    +0.197 C 
ATOM      6  O   UNL     1      61.494  30.581   5.984  0.00  0.00    -0.346 OA
ENDROOT
BRANCH   1   7
ATOM      7  O   UNL     1      59.284  30.784   5.309  0.00  0.00    -0.365 OA
ATOM      8  H   UNL     1      59.197  29.932   5.808  0.00  0.00    +0.213 HD
ENDBRANCH   1   7
BRANCH   2   9
ATOM      9  O   UNL     1      60.443  33.476   7.224  0.00  0.00    -0.384 OA
ATOM     10  H   UNL     1      60.631  33.706   8.172  0.00  0.00    +0.210 HD
ENDBRANCH   2   9
BRANCH   3  11
ATOM     11  O   UNL     1      62.011  31.753   8.527  0.00  0.00    -0.386 OA
ATOM     12  H   UNL     1      62.082  32.318   9.341  0.00  0.00    +0.210 HD
ENDBRANCH   3  11
BRANCH   4  13
ATOM     13  O   UNL     1      61.127  29.180   9.233  0.00  0.00    -0.387 OA
ATOM     14  H   UNL     1      60.849  28.231   9.142  0.00  0.00    +0.210 HD
ENDBRANCH   4  13
TORSDOF 4
ENDMDL
