MODEL 1
REMARK VINA RESULT:    -5.886      0.000      0.000
REMARK INTER + INTRA:          -7.115
REMARK INTER:                  -7.091
REMARK INTRA:                  -0.024
REMARK UNBOUND:                -0.024
REMARK  Name = BGC
REMARK  6 active torsions:
REMARK  status: ('A' for Active; 'I' for Inactive)
REMARK    1  A    between atoms: C_1  and  O_8
REMARK    2  A    between atoms: C_2  and  O_9
REMARK    3  A    between atoms: C_3  and  O_10
REMARK    4  A    between atoms: C_4  and  C_5
REMARK    5  A    between atoms: C_5  and  O_12
REMARK    6  A    between atoms: C_6  and  O_7
REMARK                            x       y       z     vdW  Elec       q    Type
REMARK                         _______ _______ _______ _____ _____    ______ ____
ROOT
ATOM      1  C   UNL     1      47.575  10.065  29.177  0.00  0.00    +0.201 C 
ATOM      2  C   UNL     1      48.653   9.938  28.086  0.00  0.00    +0.179 C 
ATOM      3  C   UNL     1      48.100  10.398  26.725  0.00  0.00    +0.177 C 
ATOM      4  C   UNL     1      46.714   9.778  26.417  0.00  0.00    +0.178 C 
ATOM      5  C   UNL     1      46.262   9.393  28.732  0.00  0.00    +0.279 C 
ATOM      6  O   UNL     1      45.785   9.893  27.491  0.00  0.00    -0.341 OA
ENDROOT
BRANCH   5   7
ATOM      7  O   UNL     1      46.382   7.994  28.697  0.00  0.00    -0.365 OA
ATOM      8  H   UNL     1      46.337   7.674  29.636  0.00  0.00    +0.213 HD
ENDBRANCH   5   7
BRANCH   1   9
ATOM      9  O   UNL     1      47.324  11.420  29.453  0.00  0.00    -0.384 OA
ATOM     10  H   UNL     1      47.687  11.602  30.360  0.00  0.00    +0.210 HD
ENDBRANCH   1   9
BRANCH   2  11
ATOM     11  O   UNL     1      49.106   8.611  27.993  0.00  0.00    -0.386 OA
ATOM     12  H   UNL     1      50.093   8.635  28.103  0.00  0.00    +0.210 HD
ENDBRANCH   2  11
BRANCH   3  13
ATOM     13  O   UNL     1      47.980  11.799  26.712  0.00  0.00    -0.386 OA
ATOM     14  H   UNL     1      47.419  12.035  25.928  0.00  0.00    +0.210 HD
ENDBRANCH   3  13
BRANCH   4  15
ATOM     15  C   UNL     1      46.787   8.354  25.832  0.00  0.00    +0.190 C 
BRANCH  15  16
ATOM     16  O   UNL     1      46.555   8.397  24.450  0.00  0.00    -0.392 OA
ATOM     17  H   UNL     1      46.386   9.349  24.228  0.00  0.00    +0.210 HD
ENDBRANCH  15  16
ENDBRANCH   4  15
TORSDOF 6
ENDMDL
MODEL 2
REMARK VINA RESULT:    -5.804      1.035      3.557
REMARK INTER + INTRA:          -7.016
REMARK INTER:                  -6.750
REMARK INTRA:                  -0.266
REMARK UNBOUND:                -0.024
REMARK  Name = BGC
REMARK  6 active torsions:
REMARK  status: ('A' for Active; 'I' for Inactive)
REMARK    1  A    between atoms: C_1  and  O_8
REMARK    2  A    between atoms: C_2  and  O_9
REMARK    3  A    between atoms: C_3  and  O_10
REMARK    4  A    between atoms: C_4  and  C_5
REMARK    5  A    between atoms: C_5  and  O_12
REMARK    6  A    between atoms: C_6  and  O_7
REMARK                            x       y       z     vdW  Elec       q    Type
REMARK                         _______ _______ _______ _____ _____    ______ ____
ROOT
ATOM      1  C   UNL     1      47.611   9.512  25.720  0.00  0.00    +0.201 C 
ATOM      2  C   UNL     1      48.631  10.455  26.381  0.00  0.00    +0.179 C 
ATOM      3  C   UNL     1      49.074   9.900  27.747  0.00  0.00    +0.177 C 
ATOM      4  C   UNL     1      47.870   9.450  28.613  0.00  0.00    +0.178 C 
ATOM      5  C   UNL     1      46.470   9.166  26.696  0.00  0.00    +0.279 C 
ATOM      6  O   UNL     1      46.945   8.619  27.918  0.00  0.00    -0.341 OA
ENDROOT
BRANCH   5   7
ATOM      7  O   UNL     1      45.636  10.271  26.931  0.00  0.00    -0.365 OA
ATOM      8  H   UNL     1      44.981   9.999  27.627  0.00  0.00    +0.213 HD
ENDBRANCH   5   7
BRANCH   1   9
ATOM      9  O   UNL     1      48.242   8.323  25.315  0.00  0.00    -0.384 OA
ATOM     10  H   UNL     1      49.008   8.585  24.738  0.00  0.00    +0.210 HD
ENDBRANCH   1   9
BRANCH   2  11
ATOM     11  O   UNL     1      48.084  11.739  26.543  0.00  0.00    -0.386 OA
ATOM     12  H   UNL     1      47.351  11.826  25.877  0.00  0.00    +0.210 HD
ENDBRANCH   2  11
BRANCH   3  13
ATOM     13  O   UNL     1      49.927   8.799  27.557  0.00  0.00    -0.386 OA
ATOM     14  H   UNL     1      50.796   9.157  27.236  0.00  0.00    +0.210 HD
ENDBRANCH   3  13
BRANCH   4  15
ATOM     15  C   UNL     1      47.189  10.604  29.376  0.00  0.00    +0.190 C 
BRANCH  15  16
ATOM     16  O   UNL     1      48.130  11.603  29.661  0.00  0.00    -0.392 OA
ATOM     17  H   UNL     1      47.738  12.152  30.389  0.00  0.00    +0.210 HD
ENDBRANCH  15  16
ENDBRANCH   4  15
TORSDOF 6
ENDMDL
MODEL 3
REMARK VINA RESULT:    -5.620      1.300      3.107
REMARK INTER + INTRA:          -6.794
REMARK INTER:                  -6.555
REMARK INTRA:                  -0.240
REMARK UNBOUND:                -0.024
REMARK  Name = BGC
REMARK  6 active torsions:
REMARK  status: ('A' for Active; 'I' for Inactive)
REMARK    1  A    between atoms: C_1  and  O_8
REMARK    2  A    between atoms: C_2  and  O_9
REMARK    3  A    between atoms: C_3  and  O_10
REMARK    4  A    between atoms: C_4  and  C_5
REMARK    5  A    between atoms: C_5  and  O_12
REMARK    6  A    between atoms: C_6  and  O_7
REMARK                            x       y       z     vdW  Elec       q    Type
REMARK                         _______ _______ _______ _____ _____    ______ ____
ROOT
ATOM      1  C   UNL     1      48.585  10.598  26.378  0.00  0.00    +0.201 C 
ATOM      2  C   UNL     1      47.619   9.548  25.802  0.00  0.00    +0.179 C 
ATOM      3  C   UNL     1      46.452   9.298  26.773  0.00  0.00    +0.177 C 
ATOM      4  C   UNL     1      46.939   9.079  28.228  0.00  0.00    +0.178 C 
ATOM      5  C   UNL     1      48.989  10.239  27.821  0.00  0.00    +0.279 C 
ATOM      6  O   UNL     1      47.867  10.063  28.674  0.00  0.00    -0.341 OA
ENDROOT
BRANCH   5   7
ATOM      7  O   UNL     1      49.830   9.114  27.859  0.00  0.00    -0.365 OA
ATOM      8  H   UNL     1      50.755   9.447  27.996  0.00  0.00    +0.213 HD
ENDBRANCH   5   7
BRANCH   1   9
ATOM      9  O   UNL     1      47.980  11.866  26.375  0.00  0.00    -0.384 OA
ATOM     10  H   UNL     1      47.771  12.088  27.321  0.00  0.00    +0.210 HD
ENDBRANCH   1   9
BRANCH   2  11
ATOM     11  O   UNL     1      48.295   8.343  25.547  0.00  0.00    -0.386 OA
ATOM     12  H   UNL     1      48.067   8.074  24.618  0.00  0.00    +0.210 HD
ENDBRANCH   2  11
BRANCH   3  13
ATOM     13  O   UNL     1      45.574  10.395  26.753  0.00  0.00    -0.386 OA
ATOM     14  H   UNL     1      45.644  10.839  27.637  0.00  0.00    +0.210 HD
ENDBRANCH   3  13
BRANCH   4  15
ATOM     15  C   UNL     1      47.403   7.637  28.517  0.00  0.00    +0.190 C 
BRANCH  15  16
ATOM     16  O   UNL     1      47.996   7.576  29.785  0.00  0.00    -0.392 OA
ATOM     17  H   UNL     1      48.613   6.798  29.764  0.00  0.00    +0.210 HD
ENDBRANCH  15  16
ENDBRANCH   4  15
TORSDOF 6
ENDMDL
MODEL 4
REMARK VINA RESULT:    -5.587      1.197      2.202
REMARK INTER + INTRA:          -6.755
REMARK INTER:                  -6.515
REMARK INTRA:                  -0.239
REMARK UNBOUND:                -0.024
REMARK  Name = BGC
REMARK  6 active torsions:
REMARK  status: ('A' for Active; 'I' for Inactive)
REMARK    1  A    between atoms: C_1  and  O_8
REMARK    2  A    between atoms: C_2  and  O_9
REMARK    3  A    between atoms: C_3  and  O_10
REMARK    4  A    between atoms: C_4  and  C_5
REMARK    5  A    between atoms: C_5  and  O_12
REMARK    6  A    between atoms: C_6  and  O_7
REMARK                            x       y       z     vdW  Elec       q    Type
REMARK                         _______ _______ _______ _____ _____    ______ ____
ROOT
ATOM      1  C   UNL     1      47.670  10.629  28.382  0.00  0.00    +0.201 C 
ATOM      2  C   UNL     1      47.932   9.152  28.725  0.00  0.00    +0.179 C 
ATOM      3  C   UNL     1      48.843   8.506  27.666  0.00  0.00    +0.177 C 
ATOM      4  C   UNL     1      48.374   8.818  26.222  0.00  0.00    +0.178 C 
ATOM      5  C   UNL     1      47.199  10.778  26.922  0.00  0.00    +0.279 C 
ATOM      6  O   UNL     1      48.105  10.198  25.995  0.00  0.00    -0.341 OA
ENDROOT
BRANCH   5   7
ATOM      7  O   UNL     1      45.902  10.271  26.741  0.00  0.00    -0.365 OA
ATOM      8  H   UNL     1      45.661  10.420  25.789  0.00  0.00    +0.213 HD
ENDBRANCH   5   7
BRANCH   1   9
ATOM      9  O   UNL     1      48.841  11.384  28.564  0.00  0.00    -0.384 OA
ATOM     10  H   UNL     1      48.951  11.515  29.543  0.00  0.00    +0.210 HD
ENDBRANCH   1   9
BRANCH   2  11
ATOM     11  O   UNL     1      46.722   8.443  28.811  0.00  0.00    -0.386 OA
ATOM     12  H   UNL     1      46.801   7.831  29.589  0.00  0.00    +0.210 HD
ENDBRANCH   2  11
BRANCH   3  13
ATOM     13  O   UNL     1      50.159   8.975  27.823  0.00  0.00    -0.386 OA
ATOM     14  H   UNL     1      50.160   9.580  28.610  0.00  0.00    +0.210 HD
ENDBRANCH   3  13
BRANCH   4  15
ATOM     15  C   UNL     1      47.247   7.893  25.723  0.00  0.00    +0.190 C 
BRANCH  15  16
ATOM     16  O   UNL     1      46.751   8.368  24.501  0.00  0.00    -0.392 OA
ATOM     17  H   UNL     1      46.763   9.358  24.565  0.00  0.00    +0.210 HD
ENDBRANCH  15  16
ENDBRANCH   4  15
TORSDOF 6
ENDMDL
MODEL 5
REMARK VINA RESULT:    -5.531      1.134      2.893
REMARK INTER + INTRA:          -6.687
REMARK INTER:                  -6.479
REMARK INTRA:                  -0.208
REMARK UNBOUND:                -0.024
REMARK  Name = BGC
REMARK  6 active torsions:
REMARK  status: ('A' for Active; 'I' for Inactive)
REMARK    1  A    between atoms: C_1  and  O_8
REMARK    2  A    between atoms: C_2  and  O_9
REMARK    3  A    between atoms: C_3  and  O_10
REMARK    4  A    between atoms: C_4  and  C_5
REMARK    5  A    between atoms: C_5  and  O_12
REMARK    6  A    between atoms: C_6  and  O_7
REMARK                            x       y       z     vdW  Elec       q    Type
REMARK                         _______ _______ _______ _____ _____    ______ ____
ROOT
ATOM      1  C   UNL     1      47.773  10.585  28.512  0.00  0.00    +0.201 C 
ATOM      2  C   UNL     1      46.504   9.929  27.941  0.00  0.00    +0.179 C 
ATOM      3  C   UNL     1      46.800   8.490  27.483  0.00  0.00    +0.177 C 
ATOM      4  C   UNL     1      48.083   8.404  26.618  0.00  0.00    +0.178 C 
ATOM      5  C   UNL     1      48.957  10.430  27.538  0.00  0.00    +0.279 C 
ATOM      6  O   UNL     1      49.202   9.075  27.189  0.00  0.00    -0.341 OA
ENDROOT
BRANCH   5   7
ATOM      7  O   UNL     1      48.791  11.222  26.390  0.00  0.00    -0.365 OA
ATOM      8  H   UNL     1      49.078  12.143  26.627  0.00  0.00    +0.213 HD
ENDBRANCH   5   7
BRANCH   1   9
ATOM      9  O   UNL     1      48.112   9.995  29.741  0.00  0.00    -0.384 OA
ATOM     10  H   UNL     1      47.396   9.340  29.954  0.00  0.00    +0.210 HD
ENDBRANCH   1   9
BRANCH   2  11
ATOM     11  O   UNL     1      46.002  10.680  26.864  0.00  0.00    -0.386 OA
ATOM     12  H   UNL     1      45.012  10.681  26.949  0.00  0.00    +0.210 HD
ENDBRANCH   2  11
BRANCH   3  13
ATOM     13  O   UNL     1      46.956   7.658  28.605  0.00  0.00    -0.386 OA
ATOM     14  H   UNL     1      47.103   6.737  28.265  0.00  0.00    +0.210 HD
ENDBRANCH   3  13
BRANCH   4  15
ATOM     15  C   UNL     1      47.858   8.761  25.136  0.00  0.00    +0.190 C 
BRANCH  15  16
ATOM     16  O   UNL     1      46.601   8.298  24.723  0.00  0.00    -0.392 OA
ATOM     17  H   UNL     1      46.498   7.392  25.116  0.00  0.00    +0.210 HD
ENDBRANCH  15  16
ENDBRANCH   4  15
TORSDOF 6
ENDMDL
MODEL 6
REMARK VINA RESULT:    -5.446      1.585      3.086
REMARK INTER + INTRA:          -6.585
REMARK INTER:                  -6.307
REMARK INTRA:                  -0.278
REMARK UNBOUND:                -0.024
REMARK  Name = BGC
REMARK  6 active torsions:
REMARK  status: ('A' for Active; 'I' for Inactive)
REMARK    1  A    between atoms: C_1  and  O_8
REMARK    2  A    between atoms: C_2  and  O_9
REMARK    3  A    between atoms: C_3  and  O_10
REMARK    4  A    between atoms: C_4  and  C_5
REMARK    5  A    between atoms: C_5  and  O_12
REMARK    6  A    between atoms: C_6  and  O_7
REMARK                            x       y       z     vdW  Elec       q    Type
REMARK                         _______ _______ _______ _____ _____    ______ ____
ROOT
ATOM      1  C   UNL     1      49.306  10.438  26.953  0.00  0.00    +0.201 C 
ATOM      2  C   UNL     1      47.916  10.985  27.323  0.00  0.00    +0.179 C 
ATOM      3  C   UNL     1      47.503  10.505  28.726  0.00  0.00    +0.177 C 
ATOM      4  C   UNL     1      47.730   8.983  28.913  0.00  0.00    +0.178 C 
ATOM      5  C   UNL     1      49.374   8.915  27.179  0.00  0.00    +0.279 C 
ATOM      6  O   UNL     1      49.022   8.544  28.504  0.00  0.00    -0.341 OA
ENDROOT
BRANCH   5   7
ATOM      7  O   UNL     1      48.599   8.217  26.239  0.00  0.00    -0.365 OA
ATOM      8  H   UNL     1      49.169   7.489  25.876  0.00  0.00    +0.213 HD
ENDBRANCH   5   7
BRANCH   1   9
ATOM      9  O   UNL     1      50.295  11.060  27.734  0.00  0.00    -0.384 OA
ATOM     10  H   UNL     1      51.034  11.309  27.118  0.00  0.00    +0.210 HD
ENDBRANCH   1   9
BRANCH   2  11
ATOM     11  O   UNL     1      46.959  10.581  26.378  0.00  0.00    -0.386 OA
ATOM     12  H   UNL     1      46.546  11.407  26.013  0.00  0.00    +0.210 HD
ENDBRANCH   2  11
BRANCH   3  13
ATOM     13  O   UNL     1      48.245  11.194  29.701  0.00  0.00    -0.386 OA
ATOM     14  H   UNL     1      47.592  11.626  30.311  0.00  0.00    +0.210 HD
ENDBRANCH   3  13
BRANCH   4  15
ATOM     15  C   UNL     1      46.590   8.112  28.349  0.00  0.00    +0.190 C 
BRANCH  15  16
ATOM     16  O   UNL     1      45.408   8.862  28.284  0.00  0.00    -0.392 OA
ATOM     17  H   UNL     1      44.793   8.467  28.955  0.00  0.00    +0.210 HD
ENDBRANCH  15  16
ENDBRANCH   4  15
TORSDOF 6
ENDMDL
MODEL 7
REMARK VINA RESULT:    -5.422      1.527      3.370
REMARK INTER + INTRA:          -6.556
REMARK INTER:                  -6.279
REMARK INTRA:                  -0.277
REMARK UNBOUND:                -0.024
REMARK  Name = BGC
REMARK  6 active torsions:
REMARK  status: ('A' for Active; 'I' for Inactive)
REMARK    1  A    between atoms: C_1  and  O_8
REMARK    2  A    between atoms: C_2  and  O_9
REMARK    3  A    between atoms: C_3  and  O_10
REMARK    4  A    between atoms: C_4  and  C_5
REMARK    5  A    between atoms: C_5  and  O_12
REMARK    6  A    between atoms: C_6  and  O_7
REMARK                            x       y       z     vdW  Elec       q    Type
REMARK                         _______ _______ _______ _____ _____    ______ ____
ROOT
ATOM      1  C   UNL     1      46.451   7.752  27.577  0.00  0.00    +0.201 C 
ATOM      2  C   UNL     1      45.919   8.980  26.819  0.00  0.00    +0.179 C 
ATOM      3  C   UNL     1      46.850   9.335  25.646  0.00  0.00    +0.177 C 
ATOM      4  C   UNL     1      48.340   9.365  26.071  0.00  0.00    +0.178 C 
ATOM      5  C   UNL     1      47.937   7.933  27.942  0.00  0.00    +0.279 C 
ATOM      6  O   UNL     1      48.747   8.218  26.810  0.00  0.00    -0.341 OA
ENDROOT
BRANCH   5   7
ATOM      7  O   UNL     1      48.111   8.907  28.940  0.00  0.00    -0.365 OA
ATOM      8  H   UNL     1      47.721   8.540  29.776  0.00  0.00    +0.213 HD
ENDBRANCH   5   7
BRANCH   1   9
ATOM      9  O   UNL     1      46.313   6.597  26.788  0.00  0.00    -0.384 OA
ATOM     10  H   UNL     1      46.972   5.935  27.127  0.00  0.00    +0.210 HD
ENDBRANCH   1   9
BRANCH   2  11
ATOM     11  O   UNL     1      45.799  10.080  27.684  0.00  0.00    -0.386 OA
ATOM     12  H   UNL     1      46.717  10.431  27.835  0.00  0.00    +0.210 HD
ENDBRANCH   2  11
BRANCH   3  13
ATOM     13  O   UNL     1      46.695   8.393  24.615  0.00  0.00    -0.386 OA
ATOM     14  H   UNL     1      46.988   8.831  23.774  0.00  0.00    +0.210 HD
ENDBRANCH   3  13
BRANCH   4  15
ATOM     15  C   UNL     1      48.771  10.691  26.729  0.00  0.00    +0.190 C 
BRANCH  15  16
ATOM     16  O   UNL     1      47.947  11.732  26.281  0.00  0.00    -0.392 OA
ATOM     17  H   UNL     1      47.532  12.124  27.093  0.00  0.00    +0.210 HD
ENDBRANCH  15  16
ENDBRANCH   4  15
TORSDOF 6
ENDMDL
MODEL 8
REMARK VINA RESULT:    -5.313      1.909      3.948
REMARK INTER + INTRA:          -6.425
REMARK INTER:                  -6.147
REMARK INTRA:                  -0.277
REMARK UNBOUND:                -0.024
REMARK  Name = BGC
REMARK  6 active torsions:
REMARK  status: ('A' for Active; 'I' for Inactive)
REMARK    1  A    between atoms: C_1  and  O_8
REMARK    2  A    between atoms: C_2  and  O_9
REMARK    3  A    between atoms: C_3  and  O_10
REMARK    4  A    between atoms: C_4  and  C_5
REMARK    5  A    between atoms: C_5  and  O_12
REMARK    6  A    between atoms: C_6  and  O_7
REMARK                            x       y       z     vdW  Elec       q    Type
REMARK                         _______ _______ _______ _____ _____    ______ ____
ROOT
ATOM      1  C   UNL     1      43.976   8.169  26.368  0.00  0.00    +0.201 C 
ATOM      2  C   UNL     1      44.605   9.322  25.566  0.00  0.00    +0.179 C 
ATOM      3  C   UNL     1      46.126   9.127  25.443  0.00  0.00    +0.177 C 
ATOM      4  C   UNL     1      46.783   8.779  26.803  0.00  0.00    +0.178 C 
ATOM      5  C   UNL     1      44.726   7.951  27.696  0.00  0.00    +0.279 C 
ATOM      6  O   UNL     1      46.117   7.736  27.509  0.00  0.00    -0.341 OA
ENDROOT
BRANCH   5   7
ATOM      7  O   UNL     1      44.498   9.004  28.598  0.00  0.00    -0.365 OA
ATOM      8  H   UNL     1      44.016   8.620  29.377  0.00  0.00    +0.213 HD
ENDBRANCH   5   7
BRANCH   1   9
ATOM      9  O   UNL     1      44.017   6.980  25.620  0.00  0.00    -0.384 OA
ATOM     10  H   UNL     1      44.702   7.108  24.911  0.00  0.00    +0.210 HD
ENDBRANCH   1   9
BRANCH   2  11
ATOM     11  O   UNL     1      44.329  10.556  26.178  0.00  0.00    -0.386 OA
ATOM     12  H   UNL     1      44.665  11.263  25.567  0.00  0.00    +0.210 HD
ENDBRANCH   2  11
BRANCH   3  13
ATOM     13  O   UNL     1      46.399   8.091  24.533  0.00  0.00    -0.386 OA
ATOM     14  H   UNL     1      45.940   8.321  23.684  0.00  0.00    +0.210 HD
ENDBRANCH   3  13
BRANCH   4  15
ATOM     15  C   UNL     1      47.077  10.010  27.683  0.00  0.00    +0.190 C 
BRANCH  15  16
ATOM     16  O   UNL     1      47.178  11.154  26.879  0.00  0.00    -0.392 OA
ATOM     17  H   UNL     1      46.420  11.109  26.240  0.00  0.00    +0.210 HD
ENDBRANCH  15  16
ENDBRANCH   4  15
TORSDOF 6
ENDMDL
MODEL 9
REMARK VINA RESULT:    -5.310      1.201      2.995
REMARK INTER + INTRA:          -6.421
REMARK INTER:                  -6.220
REMARK INTRA:                  -0.201
REMARK UNBOUND:                -0.024
REMARK  Name = BGC
REMARK  6 active torsions:
REMARK  status: ('A' for Active; 'I' for Inactive)
REMARK    1  A    between atoms: C_1  and  O_8
REMARK    2  A    between atoms: C_2  and  O_9
REMARK    3  A    between atoms: C_3  and  O_10
REMARK    4  A    between atoms: C_4  and  C_5
REMARK    5  A    between atoms: C_5  and  O_12
REMARK    6  A    between atoms: C_6  and  O_7
REMARK                            x       y       z     vdW  Elec       q    Type
REMARK                         _______ _______ _______ _____ _____    ______ ____
ROOT
ATOM      1  C   UNL     1      48.737  10.041  28.088  0.00  0.00    +0.201 C 
ATOM      2  C   UNL     1      47.609   9.766  29.097  0.00  0.00    +0.179 C 
ATOM      3  C   UNL     1      46.702   8.627  28.596  0.00  0.00    +0.177 C 
ATOM      4  C   UNL     1      46.287   8.820  27.115  0.00  0.00    +0.178 C 
ATOM      5  C   UNL     1      48.170  10.222  26.666  0.00  0.00    +0.279 C 
ATOM      6  O   UNL     1      47.378   9.119  26.250  0.00  0.00    -0.341 OA
ENDROOT
BRANCH   5   7
ATOM      7  O   UNL     1      47.458  11.426  26.542  0.00  0.00    -0.365 OA
ATOM      8  H   UNL     1      46.894  11.516  27.355  0.00  0.00    +0.213 HD
ENDBRANCH   5   7
BRANCH   1   9
ATOM      9  O   UNL     1      49.653   8.975  28.081  0.00  0.00    -0.384 OA
ATOM     10  H   UNL     1      49.211   8.218  27.613  0.00  0.00    +0.210 HD
ENDBRANCH   1   9
BRANCH   2  11
ATOM     11  O   UNL     1      46.845  10.925  29.312  0.00  0.00    -0.386 OA
ATOM     12  H   UNL     1      46.919  11.477  28.488  0.00  0.00    +0.210 HD
ENDBRANCH   2  11
BRANCH   3  13
ATOM     13  O   UNL     1      47.373   7.398  28.719  0.00  0.00    -0.386 OA
ATOM     14  H   UNL     1      46.911   6.886  29.433  0.00  0.00    +0.210 HD
ENDBRANCH   3  13
BRANCH   4  15
ATOM     15  C   UNL     1      45.088   9.770  26.925  0.00  0.00    +0.190 C 
BRANCH  15  16
ATOM     16  O   UNL     1      44.792   9.892  25.561  0.00  0.00    -0.392 OA
ATOM     17  H   UNL     1      44.198   9.129  25.339  0.00  0.00    +0.210 HD
ENDBRANCH  15  16
ENDBRANCH   4  15
TORSDOF 6
ENDMDL
MODEL 10
REMARK VINA RESULT:    -5.300      1.465      2.575
REMARK INTER + INTRA:          -6.408
REMARK INTER:                  -6.137
REMARK INTRA:                  -0.272
REMARK UNBOUND:                -0.024
REMARK  Name = BGC
REMARK  6 active torsions:
REMARK  status: ('A' for Active; 'I' for Inactive)
REMARK    1  A    between atoms: C_1  and  O_8
REMARK    2  A    between atoms: C_2  and  O_9
REMARK    3  A    between atoms: C_3  and  O_10
REMARK    4  A    between atoms: C_4  and  C_5
REMARK    5  A    between atoms: C_5  and  O_12
REMARK    6  A    between atoms: C_6  and  O_7
REMARK                            x       y       z     vdW  Elec       q    Type
REMARK                         _______ _______ _______ _____ _____    ______ ____
ROOT
ATOM      1  C   UNL     1      46.489   9.842  27.838  0.00  0.00    +0.201 C 
ATOM      2  C   UNL     1      47.774  10.582  28.251  0.00  0.00    +0.179 C 
ATOM      3  C   UNL     1      48.782  10.603  27.089  0.00  0.00    +0.177 C 
ATOM      4  C   UNL     1      48.955   9.206  26.440  0.00  0.00    +0.178 C 
ATOM      5  C   UNL     1      46.820   8.469  27.223  0.00  0.00    +0.279 C 
ATOM      6  O   UNL     1      47.723   8.563  26.130  0.00  0.00    -0.341 OA
ENDROOT
BRANCH   5   7
ATOM      7  O   UNL     1      47.297   7.569  28.190  0.00  0.00    -0.365 OA
ATOM      8  H   UNL     1      47.202   8.014  29.073  0.00  0.00    +0.213 HD
ENDBRANCH   5   7
BRANCH   1   9
ATOM      9  O   UNL     1      45.774  10.603  26.897  0.00  0.00    -0.384 OA
ATOM     10  H   UNL     1      45.383   9.962  26.245  0.00  0.00    +0.210 HD
ENDBRANCH   1   9
BRANCH   2  11
ATOM     11  O   UNL     1      48.354   9.972  29.376  0.00  0.00    -0.386 OA
ATOM     12  H   UNL     1      48.997   9.295  29.038  0.00  0.00    +0.210 HD
ENDBRANCH   2  11
BRANCH   3  13
ATOM     13  O   UNL     1      48.351  11.507  26.103  0.00  0.00    -0.386 OA
ATOM     14  H   UNL     1      48.338  12.407  26.520  0.00  0.00    +0.210 HD
ENDBRANCH   3  13
BRANCH   4  15
ATOM     15  C   UNL     1      49.941   8.290  27.193  0.00  0.00    +0.190 C 
BRANCH  15  16
ATOM     16  O   UNL     1      50.897   9.068  27.859  0.00  0.00    -0.392 OA
ATOM     17  H   UNL     1      51.080   8.605  28.717  0.00  0.00    +0.210 HD
ENDBRANCH  15  16
ENDBRANCH   4  15
TORSDOF 6
ENDMDL
MODEL 11
REMARK VINA RESULT:    -5.259      1.216      3.725
REMARK INTER + INTRA:          -6.360
REMARK INTER:                  -6.301
REMARK INTRA:                  -0.058
REMARK UNBOUND:                -0.024
REMARK  Name = BGC
REMARK  6 active torsions:
REMARK  status: ('A' for Active; 'I' for Inactive)
REMARK    1  A    between atoms: C_1  and  O_8
REMARK    2  A    between atoms: C_2  and  O_9
REMARK    3  A    between atoms: C_3  and  O_10
REMARK    4  A    between atoms: C_4  and  C_5
REMARK    5  A    between atoms: C_5  and  O_12
REMARK    6  A    between atoms: C_6  and  O_7
REMARK                            x       y       z     vdW  Elec       q    Type
REMARK                         _______ _______ _______ _____ _____    ______ ____
ROOT
ATOM      1  C   UNL     1      47.118   7.979  25.616  0.00  0.00    +0.201 C 
ATOM      2  C   UNL     1      46.181   8.132  26.827  0.00  0.00    +0.179 C 
ATOM      3  C   UNL     1      45.918   9.619  27.123  0.00  0.00    +0.177 C 
ATOM      4  C   UNL     1      47.226  10.451  27.139  0.00  0.00    +0.178 C 
ATOM      5  C   UNL     1      48.376   8.854  25.783  0.00  0.00    +0.279 C 
ATOM      6  O   UNL     1      48.065  10.220  26.012  0.00  0.00    -0.341 OA
ENDROOT
BRANCH   5   7
ATOM      7  O   UNL     1      49.223   8.357  26.788  0.00  0.00    -0.365 OA
ATOM      8  H   UNL     1      48.810   8.595  27.660  0.00  0.00    +0.213 HD
ENDBRANCH   5   7
BRANCH   1   9
ATOM      9  O   UNL     1      46.453   8.357  24.438  0.00  0.00    -0.384 OA
ATOM     10  H   UNL     1      46.147   7.519  23.998  0.00  0.00    +0.210 HD
ENDBRANCH   1   9
BRANCH   2  11
ATOM     11  O   UNL     1      46.732   7.509  27.959  0.00  0.00    -0.386 OA
ATOM     12  H   UNL     1      46.213   7.826  28.745  0.00  0.00    +0.210 HD
ENDBRANCH   2  11
BRANCH   3  13
ATOM     13  O   UNL     1      45.059  10.152  26.147  0.00  0.00    -0.386 OA
ATOM     14  H   UNL     1      45.437   9.909  25.262  0.00  0.00    +0.210 HD
ENDBRANCH   3  13
BRANCH   4  15
ATOM     15  C   UNL     1      47.986  10.385  28.479  0.00  0.00    +0.190 C 
BRANCH  15  16
ATOM     16  O   UNL     1      48.716  11.566  28.668  0.00  0.00    -0.392 OA
ATOM     17  H   UNL     1      49.356  11.619  27.911  0.00  0.00    +0.210 HD
ENDBRANCH  15  16
ENDBRANCH   4  15
TORSDOF 6
ENDMDL
MODEL 12
REMARK VINA RESULT:    -5.229      1.427      3.467
REMARK INTER + INTRA:          -6.323
REMARK INTER:                  -6.090
REMARK INTRA:                  -0.233
REMARK UNBOUND:                -0.024
REMARK  Name = BGC
REMARK  6 active torsions:
REMARK  status: ('A' for Active; 'I' for Inactive)
REMARK    1  A    between atoms: C_1  and  O_8
REMARK    2  A    between atoms: C_2  and  O_9
REMARK    3  A    between atoms: C_3  and  O_10
REMARK    4  A    between atoms: C_4  and  C_5
REMARK    5  A    between atoms: C_5  and  O_12
REMARK    6  A    between atoms: C_6  and  O_7
REMARK                            x       y       z     vdW  Elec       q    Type
REMARK                         _______ _______ _______ _____ _____    ______ ____
ROOT
ATOM      1  C   UNL     1      45.830   7.846  26.762  0.00  0.00    +0.201 C 
ATOM      2  C   UNL     1      46.930   7.673  25.700  0.00  0.00    +0.179 C 
ATOM      3  C   UNL     1      48.301   8.072  26.273  0.00  0.00    +0.177 C 
ATOM      4  C   UNL     1      48.251   9.432  27.015  0.00  0.00    +0.178 C 
ATOM      5  C   UNL     1      45.899   9.247  27.400  0.00  0.00    +0.279 C 
ATOM      6  O   UNL     1      47.178   9.536  27.946  0.00  0.00    -0.341 OA
ENDROOT
BRANCH   5   7
ATOM      7  O   UNL     1      45.502  10.248  26.498  0.00  0.00    -0.365 OA
ATOM      8  H   UNL     1      46.209  10.311  25.804  0.00  0.00    +0.213 HD
ENDBRANCH   5   7
BRANCH   1   9
ATOM      9  O   UNL     1      45.973   6.878  27.771  0.00  0.00    -0.384 OA
ATOM     10  H   UNL     1      46.216   7.363  28.604  0.00  0.00    +0.210 HD
ENDBRANCH   1   9
BRANCH   2  11
ATOM     11  O   UNL     1      46.644   8.446  24.563  0.00  0.00    -0.386 OA
ATOM     12  H   UNL     1      47.508   8.613  24.102  0.00  0.00    +0.210 HD
ENDBRANCH   2  11
BRANCH   3  13
ATOM     13  O   UNL     1      48.746   7.086  27.171  0.00  0.00    -0.386 OA
ATOM     14  H   UNL     1      49.737   7.135  27.189  0.00  0.00    +0.210 HD
ENDBRANCH   3  13
BRANCH   4  15
ATOM     15  C   UNL     1      48.359  10.653  26.080  0.00  0.00    +0.190 C 
BRANCH  15  16
ATOM     16  O   UNL     1      48.028  11.819  26.783  0.00  0.00    -0.392 OA
ATOM     17  H   UNL     1      47.053  11.953  26.652  0.00  0.00    +0.210 HD
ENDBRANCH  15  16
ENDBRANCH   4  15
TORSDOF 6
ENDMDL
MODEL 13
REMARK VINA RESULT:    -5.212      1.889      3.246
REMARK INTER + INTRA:          -6.302
REMARK INTER:                  -6.083
REMARK INTRA:                  -0.219
REMARK UNBOUND:                -0.024
REMARK  Name = BGC
REMARK  6 active torsions:
REMARK  status: ('A' for Active; 'I' for Inactive)
REMARK    1  A    between atoms: C_1  and  O_8
REMARK    2  A    between atoms: C_2  and  O_9
REMARK    3  A    between atoms: C_3  and  O_10
REMARK    4  A    between atoms: C_4  and  C_5
REMARK    5  A    between atoms: C_5  and  O_12
REMARK    6  A    between atoms: C_6  and  O_7
REMARK                            x       y       z     vdW  Elec       q    Type
REMARK                         _______ _______ _______ _____ _____    ______ ____
ROOT
ATOM      1  C   UNL     1      46.164   9.508  26.485  0.00  0.00    +0.201 C 
ATOM      2  C   UNL     1      46.160   8.377  27.528  0.00  0.00    +0.179 C 
ATOM      3  C   UNL     1      47.600   8.003  27.924  0.00  0.00    +0.177 C 
ATOM      4  C   UNL     1      48.515   7.813  26.687  0.00  0.00    +0.178 C 
ATOM      5  C   UNL     1      47.107   9.170  25.313  0.00  0.00    +0.279 C 
ATOM      6  O   UNL     1      48.428   8.876  25.743  0.00  0.00    -0.341 OA
ENDROOT
BRANCH   5   7
ATOM      7  O   UNL     1      46.595   8.132  24.519  0.00  0.00    -0.365 OA
ATOM      8  H   UNL     1      47.226   8.005  23.763  0.00  0.00    +0.213 HD
ENDBRANCH   5   7
BRANCH   1   9
ATOM      9  O   UNL     1      46.584  10.712  27.076  0.00  0.00    -0.384 OA
ATOM     10  H   UNL     1      45.873  11.383  26.899  0.00  0.00    +0.210 HD
ENDBRANCH   1   9
BRANCH   2  11
ATOM     11  O   UNL     1      45.493   7.247  27.029  0.00  0.00    -0.386 OA
ATOM     12  H   UNL     1      45.471   7.338  26.040  0.00  0.00    +0.210 HD
ENDBRANCH   2  11
BRANCH   3  13
ATOM     13  O   UNL     1      48.146   9.011  28.737  0.00  0.00    -0.386 OA
ATOM     14  H   UNL     1      48.780   9.526  28.174  0.00  0.00    +0.210 HD
ENDBRANCH   3  13
BRANCH   4  15
ATOM     15  C   UNL     1      48.400   6.419  26.039  0.00  0.00    +0.190 C 
BRANCH  15  16
ATOM     16  O   UNL     1      49.212   6.359  24.899  0.00  0.00    -0.392 OA
ATOM     17  H   UNL     1      48.650   6.671  24.142  0.00  0.00    +0.210 HD
ENDBRANCH  15  16
ENDBRANCH   4  15
TORSDOF 6
ENDMDL
MODEL 14
REMARK VINA RESULT:    -5.209      1.615      3.786
REMARK INTER + INTRA:          -6.299
REMARK INTER:                  -6.062
REMARK INTRA:                  -0.237
REMARK UNBOUND:                -0.024
REMARK  Name = BGC
REMARK  6 active torsions:
REMARK  status: ('A' for Active; 'I' for Inactive)
REMARK    1  A    between atoms: C_1  and  O_8
REMARK    2  A    between atoms: C_2  and  O_9
REMARK    3  A    between atoms: C_3  and  O_10
REMARK    4  A    between atoms: C_4  and  C_5
REMARK    5  A    between atoms: C_5  and  O_12
REMARK    6  A    between atoms: C_6  and  O_7
REMARK                            x       y       z     vdW  Elec       q    Type
REMARK                         _______ _______ _______ _____ _____    ______ ____
ROOT
ATOM      1  C   UNL     1      48.676   7.039  26.226  0.00  0.00    +0.201 C 
ATOM      2  C   UNL     1      47.141   6.938  26.277  0.00  0.00    +0.179 C 
ATOM      3  C   UNL     1      46.497   8.225  25.732  0.00  0.00    +0.177 C 
ATOM      4  C   UNL     1      47.137   9.500  26.337  0.00  0.00    +0.178 C 
ATOM      5  C   UNL     1      49.162   8.349  26.875  0.00  0.00    +0.279 C 
ATOM      6  O   UNL     1      48.561   9.499  26.298  0.00  0.00    -0.341 OA
ENDROOT
BRANCH   5   7
ATOM      7  O   UNL     1      48.983   8.335  28.268  0.00  0.00    -0.365 OA
ATOM      8  H   UNL     1      49.888   8.317  28.677  0.00  0.00    +0.213 HD
ENDBRANCH   5   7
BRANCH   1   9
ATOM      9  O   UNL     1      49.120   6.997  24.893  0.00  0.00    -0.384 OA
ATOM     10  H   UNL     1      50.107   7.113  24.914  0.00  0.00    +0.210 HD
ENDBRANCH   1   9
BRANCH   2  11
ATOM     11  O   UNL     1      46.706   6.706  27.592  0.00  0.00    -0.386 OA
ATOM     12  H   UNL     1      46.122   7.470  27.842  0.00  0.00    +0.210 HD
ENDBRANCH   2  11
BRANCH   3  13
ATOM     13  O   UNL     1      46.639   8.270  24.334  0.00  0.00    -0.386 OA
ATOM     14  H   UNL     1      45.994   7.618  23.955  0.00  0.00    +0.210 HD
ENDBRANCH   3  13
BRANCH   4  15
ATOM     15  C   UNL     1      46.572   9.881  27.720  0.00  0.00    +0.190 C 
BRANCH  15  16
ATOM     16  O   UNL     1      47.305  10.950  28.253  0.00  0.00    -0.392 OA
ATOM     17  H   UNL     1      48.023  10.544  28.806  0.00  0.00    +0.210 HD
ENDBRANCH  15  16
ENDBRANCH   4  15
TORSDOF 6
ENDMDL
MODEL 15
REMARK VINA RESULT:    -5.194      1.476      2.630
REMARK INTER + INTRA:          -6.281
REMARK INTER:                  -6.081
REMARK INTRA:                  -0.200
REMARK UNBOUND:                -0.024
REMARK  Name = BGC
REMARK  6 active torsions:
REMARK  status: ('A' for Active; 'I' for Inactive)
REMARK    1  A    between atoms: C_1  and  O_8
REMARK    2  A    between atoms: C_2  and  O_9
REMARK    3  A    between atoms: C_3  and  O_10
REMARK    4  A    between atoms: C_4  and  C_5
REMARK    5  A    between atoms: C_5  and  O_12
REMARK    6  A    between atoms: C_6  and  O_7
REMARK                            x       y       z     vdW  Elec       q    Type
REMARK                         _______ _______ _______ _____ _____    ______ ____
ROOT
ATOM      1  C   UNL     1      48.595  11.082  27.519  0.00  0.00    +0.201 C 
ATOM      2  C   UNL     1      49.362   9.847  27.016  0.00  0.00    +0.179 C 
ATOM      3  C   UNL     1      48.383   8.730  26.614  0.00  0.00    +0.177 C 
ATOM      4  C   UNL     1      47.296   8.490  27.693  0.00  0.00    +0.178 C 
ATOM      5  C   UNL     1      47.563  10.688  28.593  0.00  0.00    +0.279 C 
ATOM      6  O   UNL     1      46.664   9.684  28.144  0.00  0.00    -0.341 OA
ENDROOT
BRANCH   5   7
ATOM      7  O   UNL     1      48.184  10.304  29.793  0.00  0.00    -0.365 OA
ATOM      8  H   UNL     1      48.717   9.489  29.597  0.00  0.00    +0.213 HD
ENDBRANCH   5   7
BRANCH   1   9
ATOM      9  O   UNL     1      47.927  11.706  26.451  0.00  0.00    -0.384 OA
ATOM     10  H   UNL     1      48.187  12.665  26.469  0.00  0.00    +0.210 HD
ENDBRANCH   1   9
BRANCH   2  11
ATOM     11  O   UNL     1      50.243   9.377  28.005  0.00  0.00    -0.386 OA
ATOM     12  H   UNL     1      51.161   9.451  27.632  0.00  0.00    +0.210 HD
ENDBRANCH   2  11
BRANCH   3  13
ATOM     13  O   UNL     1      47.750   9.067  25.405  0.00  0.00    -0.386 OA
ATOM     14  H   UNL     1      46.897   9.518  25.639  0.00  0.00    +0.210 HD
ENDBRANCH   3  13
BRANCH   4  15
ATOM     15  C   UNL     1      47.759   7.579  28.847  0.00  0.00    +0.190 C 
BRANCH  15  16
ATOM     16  O   UNL     1      48.980   6.977  28.516  0.00  0.00    -0.392 OA
ATOM     17  H   UNL     1      48.985   6.095  28.970  0.00  0.00    +0.210 HD
ENDBRANCH  15  16
ENDBRANCH   4  15
TORSDOF 6
ENDMDL
MODEL 16
REMARK VINA RESULT:    -5.160      1.156      3.646
REMARK INTER + INTRA:          -6.241
REMARK INTER:                  -6.067
REMARK INTRA:                  -0.174
REMARK UNBOUND:                -0.024
REMARK  Name = BGC
REMARK  6 active torsions:
REMARK  status: ('A' for Active; 'I' for Inactive)
REMARK    1  A    between atoms: C_1  and  O_8
REMARK    2  A    between atoms: C_2  and  O_9
REMARK    3  A    between atoms: C_3  and  O_10
REMARK    4  A    between atoms: C_4  and  C_5
REMARK    5  A    between atoms: C_5  and  O_12
REMARK    6  A    between atoms: C_6  and  O_7
REMARK                            x       y       z     vdW  Elec       q    Type
REMARK                         _______ _______ _______ _____ _____    ______ ____
ROOT
ATOM      1  C   UNL     1      48.402   9.390  25.971  0.00  0.00    +0.201 C 
ATOM      2  C   UNL     1      48.768   8.408  27.098  0.00  0.00    +0.179 C 
ATOM      3  C   UNL     1      47.561   8.172  28.022  0.00  0.00    +0.177 C 
ATOM      4  C   UNL     1      46.879   9.499  28.443  0.00  0.00    +0.178 C 
ATOM      5  C   UNL     1      47.747  10.662  26.544  0.00  0.00    +0.279 C 
ATOM      6  O   UNL     1      46.615  10.377  27.353  0.00  0.00    -0.341 OA
ENDROOT
BRANCH   5   7
ATOM      7  O   UNL     1      48.674  11.454  27.240  0.00  0.00    -0.365 OA
ATOM      8  H   UNL     1      48.858  12.251  26.677  0.00  0.00    +0.213 HD
ENDBRANCH   5   7
BRANCH   1   9
ATOM      9  O   UNL     1      47.510   8.783  25.070  0.00  0.00    -0.384 OA
ATOM     10  H   UNL     1      47.446   7.826  25.329  0.00  0.00    +0.210 HD
ENDBRANCH   1   9
BRANCH   2  11
ATOM     11  O   UNL     1      49.853   8.897  27.844  0.00  0.00    -0.386 OA
ATOM     12  H   UNL     1      49.677   9.859  28.015  0.00  0.00    +0.210 HD
ENDBRANCH   2  11
BRANCH   3  13
ATOM     13  O   UNL     1      46.613   7.367  27.368  0.00  0.00    -0.386 OA
ATOM     14  H   UNL     1      46.356   6.647  28.002  0.00  0.00    +0.210 HD
ENDBRANCH   3  13
BRANCH   4  15
ATOM     15  C   UNL     1      47.568  10.201  29.630  0.00  0.00    +0.190 C 
BRANCH  15  16
ATOM     16  O   UNL     1      47.206  11.555  29.654  0.00  0.00    -0.392 OA
ATOM     17  H   UNL     1      46.993  11.767  30.599  0.00  0.00    +0.210 HD
ENDBRANCH  15  16
ENDBRANCH   4  15
TORSDOF 6
ENDMDL
MODEL 17
REMARK VINA RESULT:    -5.068      1.595      3.789
REMARK INTER + INTRA:          -6.129
REMARK INTER:                  -5.850
REMARK INTRA:                  -0.279
REMARK UNBOUND:                -0.024
REMARK  Name = BGC
REMARK  6 active torsions:
REMARK  status: ('A' for Active; 'I' for Inactive)
REMARK    1  A    between atoms: C_1  and  O_8
REMARK    2  A    between atoms: C_2  and  O_9
REMARK    3  A    between atoms: C_3  and  O_10
REMARK    4  A    between atoms: C_4  and  C_5
REMARK    5  A    between atoms: C_5  and  O_12
REMARK    6  A    between atoms: C_6  and  O_7
REMARK                            x       y       z     vdW  Elec       q    Type
REMARK                         _______ _______ _______ _____ _____    ______ ____
ROOT
ATOM      1  C   UNL     1      46.475   9.149  25.310  0.00  0.00    +0.201 C 
ATOM      2  C   UNL     1      47.274   9.648  26.527  0.00  0.00    +0.179 C 
ATOM      3  C   UNL     1      47.058   8.717  27.733  0.00  0.00    +0.177 C 
ATOM      4  C   UNL     1      45.559   8.395  27.962  0.00  0.00    +0.178 C 
ATOM      5  C   UNL     1      45.005   8.885  25.689  0.00  0.00    +0.279 C 
ATOM      6  O   UNL     1      44.876   7.986  26.781  0.00  0.00    -0.341 OA
ENDROOT
BRANCH   5   7
ATOM      7  O   UNL     1      44.312  10.081  25.939  0.00  0.00    -0.365 OA
ATOM      8  H   UNL     1      44.696  10.472  26.767  0.00  0.00    +0.213 HD
ENDBRANCH   5   7
BRANCH   1   9
ATOM      9  O   UNL     1      47.039   7.961  24.814  0.00  0.00    -0.384 OA
ATOM     10  H   UNL     1      48.017   8.014  24.984  0.00  0.00    +0.210 HD
ENDBRANCH   1   9
BRANCH   2  11
ATOM     11  O   UNL     1      46.895  10.959  26.861  0.00  0.00    -0.386 OA
ATOM     12  H   UNL     1      47.516  11.570  26.383  0.00  0.00    +0.210 HD
ENDBRANCH   2  11
BRANCH   3  13
ATOM     13  O   UNL     1      47.752   7.511  27.531  0.00  0.00    -0.386 OA
ATOM     14  H   UNL     1      48.342   7.380  28.318  0.00  0.00    +0.210 HD
ENDBRANCH   3  13
BRANCH   4  15
ATOM     15  C   UNL     1      44.804   9.483  28.750  0.00  0.00    +0.190 C 
BRANCH  15  16
ATOM     16  O   UNL     1      45.705  10.204  29.545  0.00  0.00    -0.392 OA
ATOM     17  H   UNL     1      45.901  11.042  29.051  0.00  0.00    +0.210 HD
ENDBRANCH  15  16
ENDBRANCH   4  15
TORSDOF 6
ENDMDL
MODEL 18
REMARK VINA RESULT:    -5.049      1.477      3.067
REMARK INTER + INTRA:          -6.106
REMARK INTER:                  -6.061
REMARK INTRA:                  -0.046
REMARK UNBOUND:                -0.024
REMARK  Name = BGC
REMARK  6 active torsions:
REMARK  status: ('A' for Active; 'I' for Inactive)
REMARK    1  A    between atoms: C_1  and  O_8
REMARK    2  A    between atoms: C_2  and  O_9
REMARK    3  A    between atoms: C_3  and  O_10
REMARK    4  A    between atoms: C_4  and  C_5
REMARK    5  A    between atoms: C_5  and  O_12
REMARK    6  A    between atoms: C_6  and  O_7
REMARK                            x       y       z     vdW  Elec       q    Type
REMARK                         _______ _______ _______ _____ _____    ______ ____
ROOT
ATOM      1  C   UNL     1      46.555   8.447  27.722  0.00  0.00    +0.201 C 
ATOM      2  C   UNL     1      47.565   8.714  28.851  0.00  0.00    +0.179 C 
ATOM      3  C   UNL     1      47.931  10.208  28.906  0.00  0.00    +0.177 C 
ATOM      4  C   UNL     1      48.277  10.777  27.506  0.00  0.00    +0.178 C 
ATOM      5  C   UNL     1      47.041   9.059  26.394  0.00  0.00    +0.279 C 
ATOM      6  O   UNL     1      47.321  10.447  26.503  0.00  0.00    -0.341 OA
ENDROOT
BRANCH   5   7
ATOM      7  O   UNL     1      48.147   8.364  25.877  0.00  0.00    -0.365 OA
ATOM      8  H   UNL     1      48.727   8.126  26.647  0.00  0.00    +0.213 HD
ENDBRANCH   5   7
BRANCH   1   9
ATOM      9  O   UNL     1      45.305   9.000  28.049  0.00  0.00    -0.384 OA
ATOM     10  H   UNL     1      45.391   9.985  27.952  0.00  0.00    +0.210 HD
ENDBRANCH   1   9
BRANCH   2  11
ATOM     11  O   UNL     1      48.725   7.944  28.667  0.00  0.00    -0.386 OA
ATOM     12  H   UNL     1      48.798   7.339  29.452  0.00  0.00    +0.210 HD
ENDBRANCH   2  11
BRANCH   3  13
ATOM     13  O   UNL     1      46.854  10.940  29.436  0.00  0.00    -0.386 OA
ATOM     14  H   UNL     1      46.152  10.285  29.687  0.00  0.00    +0.210 HD
ENDBRANCH   3  13
BRANCH   4  15
ATOM     15  C   UNL     1      49.730  10.504  27.068  0.00  0.00    +0.190 C 
BRANCH  15  16
ATOM     16  O   UNL     1      50.608  11.298  27.818  0.00  0.00    -0.392 OA
ATOM     17  H   UNL     1      50.117  11.550  28.642  0.00  0.00    +0.210 HD
ENDBRANCH  15  16
ENDBRANCH   4  15
TORSDOF 6
ENDMDL
MODEL 19
REMARK VINA RESULT:    -5.026      1.627      2.343
REMARK INTER + INTRA:          -6.079
REMARK INTER:                  -5.814
REMARK INTRA:                  -0.265
REMARK UNBOUND:                -0.024
REMARK  Name = BGC
REMARK  6 active torsions:
REMARK  status: ('A' for Active; 'I' for Inactive)
REMARK    1  A    between atoms: C_1  and  O_8
REMARK    2  A    between atoms: C_2  and  O_9
REMARK    3  A    between atoms: C_3  and  O_10
REMARK    4  A    between atoms: C_4  and  C_5
REMARK    5  A    between atoms: C_5  and  O_12
REMARK    6  A    between atoms: C_6  and  O_7
REMARK                            x       y       z     vdW  Elec       q    Type
REMARK                         _______ _______ _______ _____ _____    ______ ____
ROOT
ATOM      1  C   UNL     1      48.304   8.179  27.152  0.00  0.00    +0.201 C 
ATOM      2  C   UNL     1      47.908   9.064  25.958  0.00  0.00    +0.179 C 
ATOM      3  C   UNL     1      46.708   9.957  26.323  0.00  0.00    +0.177 C 
ATOM      4  C   UNL     1      45.573   9.158  27.012  0.00  0.00    +0.178 C 
ATOM      5  C   UNL     1      47.077   7.441  27.720  0.00  0.00    +0.279 C 
ATOM      6  O   UNL     1      46.024   8.326  28.076  0.00  0.00    -0.341 OA
ENDROOT
BRANCH   5   7
ATOM      7  O   UNL     1      46.620   6.444  26.843  0.00  0.00    -0.365 OA
ATOM      8  H   UNL     1      46.262   6.905  26.039  0.00  0.00    +0.213 HD
ENDBRANCH   5   7
BRANCH   1   9
ATOM      9  O   UNL     1      48.876   8.964  28.168  0.00  0.00    -0.384 OA
ATOM     10  H   UNL     1      48.469   9.868  28.098  0.00  0.00    +0.210 HD
ENDBRANCH   1   9
BRANCH   2  11
ATOM     11  O   UNL     1      47.591   8.273  24.841  0.00  0.00    -0.386 OA
ATOM     12  H   UNL     1      48.444   8.094  24.363  0.00  0.00    +0.210 HD
ENDBRANCH   2  11
BRANCH   3  13
ATOM     13  O   UNL     1      47.127  10.982  27.189  0.00  0.00    -0.386 OA
ATOM     14  H   UNL     1      46.629  10.866  28.039  0.00  0.00    +0.210 HD
ENDBRANCH   3  13
BRANCH   4  15
ATOM     15  C   UNL     1      44.643   8.425  26.025  0.00  0.00    +0.190 C 
BRANCH  15  16
ATOM     16  O   UNL     1      44.588   9.129  24.814  0.00  0.00    -0.392 OA
ATOM     17  H   UNL     1      45.493   9.059  24.413  0.00  0.00    +0.210 HD
ENDBRANCH  15  16
ENDBRANCH   4  15
TORSDOF 6
ENDMDL
MODEL 20
REMARK VINA RESULT:    -4.960      1.255      2.698
REMARK INTER + INTRA:          -5.999
REMARK INTER:                  -5.760
REMARK INTRA:                  -0.239
REMARK UNBOUND:                -0.024
REMARK  Name = BGC
REMARK  6 active torsions:
REMARK  status: ('A' for Active; 'I' for Inactive)
REMARK    1  A    between atoms: C_1  and  O_8
REMARK    2  A    between atoms: C_2  and  O_9
REMARK    3  A    between atoms: C_3  and  O_10
REMARK    4  A    between atoms: C_4  and  C_5
REMARK    5  A    between atoms: C_5  and  O_12
REMARK    6  A    between atoms: C_6  and  O_7
REMARK                            x       y       z     vdW  Elec       q    Type
REMARK                         _______ _______ _______ _____ _____    ______ ____
ROOT
ATOM      1  C   UNL     1      49.150  10.475  27.536  0.00  0.00    +0.201 C 
ATOM      2  C   UNL     1      49.134   8.989  27.140  0.00  0.00    +0.179 C 
ATOM      3  C   UNL     1      47.743   8.584  26.620  0.00  0.00    +0.177 C 
ATOM      4  C   UNL     1      46.605   9.074  27.552  0.00  0.00    +0.178 C 
ATOM      5  C   UNL     1      47.971  10.808  28.471  0.00  0.00    +0.279 C 
ATOM      6  O   UNL     1      46.715  10.447  27.913  0.00  0.00    -0.341 OA
ENDROOT
BRANCH   5   7
ATOM      7  O   UNL     1      48.139  10.234  29.741  0.00  0.00    -0.365 OA
ATOM      8  H   UNL     1      47.287   9.776  29.969  0.00  0.00    +0.213 HD
ENDBRANCH   5   7
BRANCH   1   9
ATOM      9  O   UNL     1      49.065  11.283  26.389  0.00  0.00    -0.384 OA
ATOM     10  H   UNL     1      48.279  11.879  26.513  0.00  0.00    +0.210 HD
ENDBRANCH   1   9
BRANCH   2  11
ATOM     11  O   UNL     1      49.488   8.183  28.235  0.00  0.00    -0.386 OA
ATOM     12  H   UNL     1      48.805   7.464  28.297  0.00  0.00    +0.210 HD
ENDBRANCH   2  11
BRANCH   3  13
ATOM     13  O   UNL     1      47.540   9.125  25.339  0.00  0.00    -0.386 OA
ATOM     14  H   UNL     1      46.579   9.362  25.273  0.00  0.00    +0.210 HD
ENDBRANCH   3  13
BRANCH   4  15
ATOM     15  C   UNL     1      46.351   8.150  28.759  0.00  0.00    +0.190 C 
BRANCH  15  16
ATOM     16  O   UNL     1      45.463   8.768  29.650  0.00  0.00    -0.392 OA
ATOM     17  H   UNL     1      44.599   8.288  29.555  0.00  0.00    +0.210 HD
ENDBRANCH  15  16
ENDBRANCH   4  15
TORSDOF 6
ENDMDL
