MODEL 1
REMARK VINA RESULT:    -7.165      0.000      0.000
REMARK INTER + INTRA:         -11.804
REMARK INTER:                 -10.516
REMARK INTRA:                  -1.289
REMARK UNBOUND:                -1.289
REMARK  Name = BEM
REMARK  12 active torsions:
REMARK  status: ('A' for Active; 'I' for Inactive)
REMARK    1  A    between atoms: C_1  and  O_20
REMARK    2  A    between atoms: C_2  and  O_3
REMARK    3  A    between atoms: C_4  and  O_5
REMARK    4  A    between atoms: C_6  and  O_7
REMARK    5  A    between atoms: C_8  and  C_10
REMARK    6  A    between atoms: C_10  and  O_11
REMARK    7  A    between atoms: C_13  and  O_14
REMARK    8  A    between atoms: C_15  and  O_16
REMARK    9  A    between atoms: C_17  and  O_18
REMARK   10  A    between atoms: C_19  and  O_20
REMARK   11  A    between atoms: C_21  and  C_23
REMARK   12  A    between atoms: C_23  and  O_25
REMARK                            x       y       z     vdW  Elec       q    Type
REMARK                         _______ _______ _______ _____ _____    ______ ____
ROOT
ATOM      1  O   UNL     1     -34.879  12.852 -16.600  0.00  0.00    -0.340 OA
ENDROOT
BRANCH   1   2
ATOM      2  C   UNL     1     -35.084  13.083 -15.212  0.00  0.00    +0.283 C 
ATOM      3  C   UNL     1     -34.819  14.563 -14.850  0.00  0.00    +0.201 C 
ATOM      4  C   UNL     1     -33.327  14.895 -15.020  0.00  0.00    +0.179 C 
ATOM      5  C   UNL     1     -32.464  13.866 -14.273  0.00  0.00    +0.185 C 
ATOM      6  C   UNL     1     -32.882  12.441 -14.693  0.00  0.00    +0.260 C 
ATOM      7  O   UNL     1     -34.261  12.219 -14.444  0.00  0.00    -0.332 OA
BRANCH   3   8
ATOM      8  O   UNL     1     -35.206  14.806 -13.521  0.00  0.00    -0.384 OA
ATOM      9  H   UNL     1     -34.967  15.748 -13.319  0.00  0.00    +0.210 HD
ENDBRANCH   3   8
BRANCH   4  10
ATOM     10  O   UNL     1     -33.056  16.182 -14.530  0.00  0.00    -0.386 OA
ATOM     11  H   UNL     1     -33.637  16.314 -13.735  0.00  0.00    +0.210 HD
ENDBRANCH   4  10
BRANCH   5  12
ATOM     12  O   UNL     1     -31.108  14.068 -14.582  0.00  0.00    -0.386 OA
ATOM     13  H   UNL     1     -30.689  13.170 -14.644  0.00  0.00    +0.210 HD
ENDBRANCH   5  12
BRANCH   6  14
ATOM     14  C   UNL     1     -32.087  11.427 -13.922  0.00  0.00    +0.337 C 
ATOM     15  O   UNL     1     -32.345  11.210 -12.707  0.00  0.00    -0.248 OA
BRANCH  14  16
ATOM     16  O   UNL     1     -31.041  10.751 -14.542  0.00  0.00    -0.479 OA
ATOM     17  H   UNL     1     -30.715   9.860 -14.185  0.00  0.00    +0.295 HD
ENDBRANCH  14  16
ENDBRANCH   6  14
ENDBRANCH   1   2
BRANCH   1  21
ATOM     18  C   UNL     1     -36.231   9.508 -18.595  0.00  0.00    +0.280 C 
ATOM     19  C   UNL     1     -37.286  10.639 -18.477  0.00  0.00    +0.201 C 
ATOM     20  C   UNL     1     -36.644  11.946 -17.962  0.00  0.00    +0.180 C 
ATOM     21  C   UNL     1     -35.458  11.631 -17.036  0.00  0.00    +0.192 C 
ATOM     22  C   UNL     1     -34.407  10.804 -17.839  0.00  0.00    +0.260 C 
ATOM     23  O   UNL     1     -34.951  10.033 -18.907  0.00  0.00    -0.332 OA
BRANCH  18  24
ATOM     24  O   UNL     1     -36.617   8.589 -19.583  0.00  0.00    -0.365 OA
ATOM     25  H   UNL     1     -36.002   7.812 -19.517  0.00  0.00    +0.213 HD
ENDBRANCH  18  24
BRANCH  19  26
ATOM     26  O   UNL     1     -38.314  10.230 -17.609  0.00  0.00    -0.384 OA
ATOM     27  H   UNL     1     -39.109  10.044 -18.174  0.00  0.00    +0.210 HD
ENDBRANCH  19  26
BRANCH  20  28
ATOM     28  O   UNL     1     -37.602  12.722 -17.286  0.00  0.00    -0.386 OA
ATOM     29  H   UNL     1     -37.198  12.994 -16.421  0.00  0.00    +0.210 HD
ENDBRANCH  20  28
BRANCH  22  30
ATOM     30  C   UNL     1     -33.564   9.931 -16.948  0.00  0.00    +0.337 C 
ATOM     31  O   UNL     1     -32.340   9.769 -17.205  0.00  0.00    -0.248 OA
BRANCH  30  32
ATOM     32  O   UNL     1     -34.129   9.280 -15.856  0.00  0.00    -0.479 OA
ATOM     33  H   UNL     1     -34.468   9.803 -15.058  0.00  0.00    +0.295 HD
ENDBRANCH  30  32
ENDBRANCH  22  30
ENDBRANCH   1  21
TORSDOF 12
ENDMDL
MODEL 2
REMARK VINA RESULT:    -7.153      0.999      2.785
REMARK INTER + INTRA:         -11.786
REMARK INTER:                 -10.676
REMARK INTRA:                  -1.110
REMARK UNBOUND:                -1.289
REMARK  Name = BEM
REMARK  12 active torsions:
REMARK  status: ('A' for Active; 'I' for Inactive)
REMARK    1  A    between atoms: C_1  and  O_20
REMARK    2  A    between atoms: C_2  and  O_3
REMARK    3  A    between atoms: C_4  and  O_5
REMARK    4  A    between atoms: C_6  and  O_7
REMARK    5  A    between atoms: C_8  and  C_10
REMARK    6  A    between atoms: C_10  and  O_11
REMARK    7  A    between atoms: C_13  and  O_14
REMARK    8  A    between atoms: C_15  and  O_16
REMARK    9  A    between atoms: C_17  and  O_18
REMARK   10  A    between atoms: C_19  and  O_20
REMARK   11  A    between atoms: C_21  and  C_23
REMARK   12  A    between atoms: C_23  and  O_25
REMARK                            x       y       z     vdW  Elec       q    Type
REMARK                         _______ _______ _______ _____ _____    ______ ____
ROOT
ATOM      1  O   UNL     1     -34.654  12.634 -17.001  0.00  0.00    -0.340 OA
ENDROOT
BRANCH   1   2
ATOM      2  C   UNL     1     -35.091  12.771 -15.655  0.00  0.00    +0.283 C 
ATOM      3  C   UNL     1     -34.967  14.236 -15.176  0.00  0.00    +0.201 C 
ATOM      4  C   UNL     1     -33.487  14.643 -15.084  0.00  0.00    +0.179 C 
ATOM      5  C   UNL     1     -32.701  13.610 -14.261  0.00  0.00    +0.185 C 
ATOM      6  C   UNL     1     -32.969  12.197 -14.819  0.00  0.00    +0.260 C 
ATOM      7  O   UNL     1     -34.357  11.899 -14.810  0.00  0.00    -0.332 OA
BRANCH   3   8
ATOM      8  O   UNL     1     -35.575  14.380 -13.917  0.00  0.00    -0.384 OA
ATOM      9  H   UNL     1     -36.224  15.127 -13.995  0.00  0.00    +0.210 HD
ENDBRANCH   3   8
BRANCH   4  10
ATOM     10  O   UNL     1     -33.367  15.909 -14.489  0.00  0.00    -0.386 OA
ATOM     11  H   UNL     1     -34.264  16.143 -14.131  0.00  0.00    +0.210 HD
ENDBRANCH   4  10
BRANCH   5  12
ATOM     12  O   UNL     1     -31.326  13.890 -14.334  0.00  0.00    -0.386 OA
ATOM     13  H   UNL     1     -30.894  13.106 -14.764  0.00  0.00    +0.210 HD
ENDBRANCH   5  12
BRANCH   6  14
ATOM     14  C   UNL     1     -32.256  11.174 -13.984  0.00  0.00    +0.337 C 
ATOM     15  O   UNL     1     -32.808  10.697 -12.955  0.00  0.00    -0.248 OA
BRANCH  14  16
ATOM     16  O   UNL     1     -30.967  10.776 -14.327  0.00  0.00    -0.479 OA
ATOM     17  H   UNL     1     -30.419  10.196 -13.703  0.00  0.00    +0.295 HD
ENDBRANCH  14  16
ENDBRANCH   6  14
ENDBRANCH   1   2
BRANCH   1  21
ATOM     18  C   UNL     1     -37.485  10.058 -18.532  0.00  0.00    +0.280 C 
ATOM     19  C   UNL     1     -36.043   9.487 -18.545  0.00  0.00    +0.201 C 
ATOM     20  C   UNL     1     -35.084  10.381 -17.727  0.00  0.00    +0.180 C 
ATOM     21  C   UNL     1     -35.543  11.847 -17.780  0.00  0.00    +0.192 C 
ATOM     22  C   UNL     1     -36.985  11.938 -17.192  0.00  0.00    +0.260 C 
ATOM     23  O   UNL     1     -37.753  10.743 -17.319  0.00  0.00    -0.332 OA
BRANCH  18  24
ATOM     24  O   UNL     1     -38.416   9.022 -18.703  0.00  0.00    -0.365 OA
ATOM     25  H   UNL     1     -39.024   9.041 -17.917  0.00  0.00    +0.213 HD
ENDBRANCH  18  24
BRANCH  19  26
ATOM     26  O   UNL     1     -35.593   9.384 -19.873  0.00  0.00    -0.384 OA
ATOM     27  H   UNL     1     -35.318   8.440 -20.010  0.00  0.00    +0.210 HD
ENDBRANCH  19  26
BRANCH  20  28
ATOM     28  O   UNL     1     -33.773  10.258 -18.218  0.00  0.00    -0.386 OA
ATOM     29  H   UNL     1     -33.160  10.397 -17.449  0.00  0.00    +0.210 HD
ENDBRANCH  20  28
BRANCH  22  30
ATOM     30  C   UNL     1     -37.755  13.109 -17.741  0.00  0.00    +0.337 C 
ATOM     31  O   UNL     1     -38.998  13.009 -17.931  0.00  0.00    -0.248 OA
BRANCH  30  32
ATOM     32  O   UNL     1     -37.102  14.294 -18.064  0.00  0.00    -0.479 OA
ATOM     33  H   UNL     1     -37.380  15.172 -17.642  0.00  0.00    +0.295 HD
ENDBRANCH  30  32
ENDBRANCH  22  30
ENDBRANCH   1  21
TORSDOF 12
ENDMDL
MODEL 3
REMARK VINA RESULT:    -6.911      1.522      4.006
REMARK INTER + INTRA:         -11.432
REMARK INTER:                  -9.784
REMARK INTRA:                  -1.647
REMARK UNBOUND:                -1.289
REMARK  Name = BEM
REMARK  12 active torsions:
REMARK  status: ('A' for Active; 'I' for Inactive)
REMARK    1  A    between atoms: C_1  and  O_20
REMARK    2  A    between atoms: C_2  and  O_3
REMARK    3  A    between atoms: C_4  and  O_5
REMARK    4  A    between atoms: C_6  and  O_7
REMARK    5  A    between atoms: C_8  and  C_10
REMARK    6  A    between atoms: C_10  and  O_11
REMARK    7  A    between atoms: C_13  and  O_14
REMARK    8  A    between atoms: C_15  and  O_16
REMARK    9  A    between atoms: C_17  and  O_18
REMARK   10  A    between atoms: C_19  and  O_20
REMARK   11  A    between atoms: C_21  and  C_23
REMARK   12  A    between atoms: C_23  and  O_25
REMARK                            x       y       z     vdW  Elec       q    Type
REMARK                         _______ _______ _______ _____ _____    ______ ____
ROOT
ATOM      1  O   UNL     1     -35.573  11.203 -15.878  0.00  0.00    -0.340 OA
ENDROOT
BRANCH   1   2
ATOM      2  C   UNL     1     -34.259  11.661 -16.170  0.00  0.00    +0.283 C 
ATOM      3  C   UNL     1     -33.260  11.221 -15.074  0.00  0.00    +0.201 C 
ATOM      4  C   UNL     1     -33.571  11.940 -13.750  0.00  0.00    +0.179 C 
ATOM      5  C   UNL     1     -33.676  13.456 -13.980  0.00  0.00    +0.185 C 
ATOM      6  C   UNL     1     -34.659  13.735 -15.136  0.00  0.00    +0.260 C 
ATOM      7  O   UNL     1     -34.253  13.072 -16.323  0.00  0.00    -0.332 OA
BRANCH   3   8
ATOM      8  O   UNL     1     -31.948  11.521 -15.476  0.00  0.00    -0.384 OA
ATOM      9  H   UNL     1     -31.657  10.789 -16.080  0.00  0.00    +0.210 HD
ENDBRANCH   3   8
BRANCH   4  10
ATOM     10  O   UNL     1     -32.567  11.674 -12.805  0.00  0.00    -0.386 OA
ATOM     11  H   UNL     1     -32.147  10.814 -13.069  0.00  0.00    +0.210 HD
ENDBRANCH   4  10
BRANCH   5  12
ATOM     12  O   UNL     1     -34.137  14.083 -12.810  0.00  0.00    -0.386 OA
ATOM     13  H   UNL     1     -34.557  13.378 -12.251  0.00  0.00    +0.210 HD
ENDBRANCH   5  12
BRANCH   6  14
ATOM     14  C   UNL     1     -34.721  15.209 -15.409  0.00  0.00    +0.337 C 
ATOM     15  O   UNL     1     -35.621  15.678 -16.159  0.00  0.00    -0.248 OA
BRANCH  14  16
ATOM     16  O   UNL     1     -33.763  16.057 -14.862  0.00  0.00    -0.479 OA
ATOM     17  H   UNL     1     -33.921  17.056 -14.813  0.00  0.00    +0.295 HD
ENDBRANCH  14  16
ENDBRANCH   6  14
ENDBRANCH   1   2
BRANCH   1  21
ATOM     18  C   UNL     1     -38.308  10.088 -18.753  0.00  0.00    +0.280 C 
ATOM     19  C   UNL     1     -37.309   8.966 -18.366  0.00  0.00    +0.201 C 
ATOM     20  C   UNL     1     -36.493   9.355 -17.114  0.00  0.00    +0.180 C 
ATOM     21  C   UNL     1     -36.305  10.879 -17.051  0.00  0.00    +0.192 C 
ATOM     22  C   UNL     1     -37.712  11.552 -16.998  0.00  0.00    +0.260 C 
ATOM     23  O   UNL     1     -38.754  10.792 -17.606  0.00  0.00    -0.332 OA
BRANCH  18  24
ATOM     24  O   UNL     1     -39.410   9.541 -19.428  0.00  0.00    -0.365 OA
ATOM     25  H   UNL     1     -39.685   8.727 -18.930  0.00  0.00    +0.213 HD
ENDBRANCH  18  24
BRANCH  19  26
ATOM     26  O   UNL     1     -36.445   8.716 -19.448  0.00  0.00    -0.384 OA
ATOM     27  H   UNL     1     -36.702   7.833 -19.821  0.00  0.00    +0.210 HD
ENDBRANCH  19  26
BRANCH  20  28
ATOM     28  O   UNL     1     -35.246   8.707 -17.128  0.00  0.00    -0.386 OA
ATOM     29  H   UNL     1     -34.568   9.374 -16.845  0.00  0.00    +0.210 HD
ENDBRANCH  20  28
BRANCH  22  30
ATOM     30  C   UNL     1     -37.700  12.951 -17.554  0.00  0.00    +0.337 C 
ATOM     31  O   UNL     1     -38.771  13.615 -17.606  0.00  0.00    -0.248 OA
BRANCH  30  32
ATOM     32  O   UNL     1     -36.520  13.510 -18.034  0.00  0.00    -0.479 OA
ATOM     33  H   UNL     1     -36.518  14.420 -18.477  0.00  0.00    +0.295 HD
ENDBRANCH  30  32
ENDBRANCH  22  30
ENDBRANCH   1  21
TORSDOF 12
ENDMDL
MODEL 4
REMARK VINA RESULT:    -6.830      1.376      5.861
REMARK INTER + INTRA:         -11.312
REMARK INTER:                 -10.406
REMARK INTRA:                  -0.906
REMARK UNBOUND:                -1.289
REMARK  Name = BEM
REMARK  12 active torsions:
REMARK  status: ('A' for Active; 'I' for Inactive)
REMARK    1  A    between atoms: C_1  and  O_20
REMARK    2  A    between atoms: C_2  and  O_3
REMARK    3  A    between atoms: C_4  and  O_5
REMARK    4  A    between atoms: C_6  and  O_7
REMARK    5  A    between atoms: C_8  and  C_10
REMARK    6  A    between atoms: C_10  and  O_11
REMARK    7  A    between atoms: C_13  and  O_14
REMARK    8  A    between atoms: C_15  and  O_16
REMARK    9  A    between atoms: C_17  and  O_18
REMARK   10  A    between atoms: C_19  and  O_20
REMARK   11  A    between atoms: C_21  and  C_23
REMARK   12  A    between atoms: C_23  and  O_25
REMARK                            x       y       z     vdW  Elec       q    Type
REMARK                         _______ _______ _______ _____ _____    ______ ____
ROOT
ATOM      1  O   UNL     1     -35.384  12.420 -15.780  0.00  0.00    -0.340 OA
ENDROOT
BRANCH   1   2
ATOM      2  C   UNL     1     -35.948  12.781 -17.034  0.00  0.00    +0.283 C 
ATOM      3  C   UNL     1     -37.494  12.741 -16.981  0.00  0.00    +0.201 C 
ATOM      4  C   UNL     1     -37.984  11.293 -16.804  0.00  0.00    +0.179 C 
ATOM      5  C   UNL     1     -37.335  10.379 -17.855  0.00  0.00    +0.185 C 
ATOM      6  C   UNL     1     -35.804  10.572 -17.830  0.00  0.00    +0.260 C 
ATOM      7  O   UNL     1     -35.456  11.929 -18.057  0.00  0.00    -0.332 OA
BRANCH   3   8
ATOM      8  O   UNL     1     -38.026  13.277 -18.166  0.00  0.00    -0.384 OA
ATOM      9  H   UNL     1     -38.352  12.511 -18.706  0.00  0.00    +0.210 HD
ENDBRANCH   3   8
BRANCH   4  10
ATOM     10  O   UNL     1     -39.381  11.235 -16.927  0.00  0.00    -0.386 OA
ATOM     11  H   UNL     1     -39.744  11.111 -16.010  0.00  0.00    +0.210 HD
ENDBRANCH   4  10
BRANCH   5  12
ATOM     12  O   UNL     1     -37.644   9.038 -17.575  0.00  0.00    -0.386 OA
ATOM     13  H   UNL     1     -37.760   8.580 -18.448  0.00  0.00    +0.210 HD
ENDBRANCH   5  12
BRANCH   6  14
ATOM     14  C   UNL     1     -35.165   9.730 -18.896  0.00  0.00    +0.337 C 
ATOM     15  O   UNL     1     -35.845   9.326 -19.878  0.00  0.00    -0.248 OA
BRANCH  14  16
ATOM     16  O   UNL     1     -33.827   9.366 -18.781  0.00  0.00    -0.479 OA
ATOM     17  H   UNL     1     -33.226   9.806 -18.093  0.00  0.00    +0.295 HD
ENDBRANCH  14  16
ENDBRANCH   6  14
ENDBRANCH   1   2
BRANCH   1  21
ATOM     18  C   UNL     1     -32.008  14.212 -14.236  0.00  0.00    +0.280 C 
ATOM     19  C   UNL     1     -33.181  15.194 -14.489  0.00  0.00    +0.201 C 
ATOM     20  C   UNL     1     -34.485  14.432 -14.813  0.00  0.00    +0.180 C 
ATOM     21  C   UNL     1     -34.167  13.104 -15.519  0.00  0.00    +0.192 C 
ATOM     22  C   UNL     1     -33.268  12.244 -14.578  0.00  0.00    +0.260 C 
ATOM     23  O   UNL     1     -32.472  12.998 -13.668  0.00  0.00    -0.332 OA
BRANCH  18  24
ATOM     24  O   UNL     1     -31.062  14.800 -13.382  0.00  0.00    -0.365 OA
ATOM     25  H   UNL     1     -31.256  15.773 -13.355  0.00  0.00    +0.213 HD
ENDBRANCH  18  24
BRANCH  19  26
ATOM     26  O   UNL     1     -32.848  16.055 -15.551  0.00  0.00    -0.384 OA
ATOM     27  H   UNL     1     -33.067  15.572 -16.390  0.00  0.00    +0.210 HD
ENDBRANCH  19  26
BRANCH  20  28
ATOM     28  O   UNL     1     -35.324  15.226 -15.614  0.00  0.00    -0.386 OA
ATOM     29  H   UNL     1     -34.743  15.685 -16.276  0.00  0.00    +0.210 HD
ENDBRANCH  20  28
BRANCH  22  30
ATOM     30  C   UNL     1     -32.404  11.275 -15.340  0.00  0.00    +0.337 C 
ATOM     31  O   UNL     1     -32.644  11.041 -16.556  0.00  0.00    -0.248 OA
BRANCH  30  32
ATOM     32  O   UNL     1     -31.356  10.614 -14.707  0.00  0.00    -0.479 OA
ATOM     33  H   UNL     1     -31.046   9.704 -15.028  0.00  0.00    +0.295 HD
ENDBRANCH  30  32
ENDBRANCH  22  30
ENDBRANCH   1  21
TORSDOF 12
ENDMDL
MODEL 5
REMARK VINA RESULT:    -6.748      1.580      3.501
REMARK INTER + INTRA:         -11.193
REMARK INTER:                 -10.533
REMARK INTRA:                  -0.660
REMARK UNBOUND:                -1.289
REMARK  Name = BEM
REMARK  12 active torsions:
REMARK  status: ('A' for Active; 'I' for Inactive)
REMARK    1  A    between atoms: C_1  and  O_20
REMARK    2  A    between atoms: C_2  and  O_3
REMARK    3  A    between atoms: C_4  and  O_5
REMARK    4  A    between atoms: C_6  and  O_7
REMARK    5  A    between atoms: C_8  and  C_10
REMARK    6  A    between atoms: C_10  and  O_11
REMARK    7  A    between atoms: C_13  and  O_14
REMARK    8  A    between atoms: C_15  and  O_16
REMARK    9  A    between atoms: C_17  and  O_18
REMARK   10  A    between atoms: C_19  and  O_20
REMARK   11  A    between atoms: C_21  and  C_23
REMARK   12  A    between atoms: C_23  and  O_25
REMARK                            x       y       z     vdW  Elec       q    Type
REMARK                         _______ _______ _______ _____ _____    ______ ____
ROOT
ATOM      1  O   UNL     1     -35.278  10.480 -15.682  0.00  0.00    -0.340 OA
ENDROOT
BRANCH   1   2
ATOM      2  C   UNL     1     -34.296  11.148 -16.463  0.00  0.00    +0.283 C 
ATOM      3  C   UNL     1     -32.875  10.648 -16.115  0.00  0.00    +0.201 C 
ATOM      4  C   UNL     1     -32.498  11.067 -14.684  0.00  0.00    +0.179 C 
ATOM      5  C   UNL     1     -32.734  12.573 -14.490  0.00  0.00    +0.185 C 
ATOM      6  C   UNL     1     -34.169  12.930 -14.932  0.00  0.00    +0.260 C 
ATOM      7  O   UNL     1     -34.397  12.553 -16.281  0.00  0.00    -0.332 OA
BRANCH   3   8
ATOM      8  O   UNL     1     -31.945  11.183 -17.023  0.00  0.00    -0.384 OA
ATOM      9  H   UNL     1     -31.166  11.489 -16.489  0.00  0.00    +0.210 HD
ENDBRANCH   3   8
BRANCH   4  10
ATOM     10  O   UNL     1     -31.150  10.765 -14.428  0.00  0.00    -0.386 OA
ATOM     11  H   UNL     1     -30.862  11.353 -13.682  0.00  0.00    +0.210 HD
ENDBRANCH   4  10
BRANCH   5  12
ATOM     12  O   UNL     1     -32.562  12.911 -13.137  0.00  0.00    -0.386 OA
ATOM     13  H   UNL     1     -32.997  12.195 -12.603  0.00  0.00    +0.210 HD
ENDBRANCH   5  12
BRANCH   6  14
ATOM     14  C   UNL     1     -34.390  14.409 -14.805  0.00  0.00    +0.337 C 
ATOM     15  O   UNL     1     -35.132  14.863 -13.892  0.00  0.00    -0.248 OA
BRANCH  14  16
ATOM     16  O   UNL     1     -33.803  15.278 -15.719  0.00  0.00    -0.479 OA
ATOM     17  H   UNL     1     -33.139  15.980 -15.415  0.00  0.00    +0.295 HD
ENDBRANCH  14  16
ENDBRANCH   6  14
ENDBRANCH   1   2
BRANCH   1  21
ATOM     18  C   UNL     1     -38.641  10.751 -18.051  0.00  0.00    +0.280 C 
ATOM     19  C   UNL     1     -38.857  11.239 -16.595  0.00  0.00    +0.201 C 
ATOM     20  C   UNL     1     -37.512  11.360 -15.844  0.00  0.00    +0.180 C 
ATOM     21  C   UNL     1     -36.508  10.326 -16.377  0.00  0.00    +0.192 C 
ATOM     22  C   UNL     1     -36.290  10.584 -17.900  0.00  0.00    +0.260 C 
ATOM     23  O   UNL     1     -37.395  11.197 -18.560  0.00  0.00    -0.332 OA
BRANCH  18  24
ATOM     24  O   UNL     1     -39.679  11.214 -18.874  0.00  0.00    -0.365 OA
ATOM     25  H   UNL     1     -40.108  11.977 -18.405  0.00  0.00    +0.213 HD
ENDBRANCH  18  24
BRANCH  19  26
ATOM     26  O   UNL     1     -39.707  10.343 -15.923  0.00  0.00    -0.384 OA
ATOM     27  H   UNL     1     -40.624  10.505 -16.269  0.00  0.00    +0.210 HD
ENDBRANCH  19  26
BRANCH  20  28
ATOM     28  O   UNL     1     -37.712  11.184 -14.463  0.00  0.00    -0.386 OA
ATOM     29  H   UNL     1     -36.825  10.987 -14.064  0.00  0.00    +0.210 HD
ENDBRANCH  20  28
BRANCH  22  30
ATOM     30  C   UNL     1     -35.871   9.341 -18.638  0.00  0.00    +0.337 C 
ATOM     31  O   UNL     1     -36.011   8.212 -18.095  0.00  0.00    -0.248 OA
BRANCH  30  32
ATOM     32  O   UNL     1     -35.308   9.429 -19.908  0.00  0.00    -0.479 OA
ATOM     33  H   UNL     1     -34.357   9.753 -20.033  0.00  0.00    +0.295 HD
ENDBRANCH  30  32
ENDBRANCH  22  30
ENDBRANCH   1  21
TORSDOF 12
ENDMDL
MODEL 6
REMARK VINA RESULT:    -6.659      1.960      5.724
REMARK INTER + INTRA:         -11.063
REMARK INTER:                  -9.726
REMARK INTRA:                  -1.337
REMARK UNBOUND:                -1.289
REMARK  Name = BEM
REMARK  12 active torsions:
REMARK  status: ('A' for Active; 'I' for Inactive)
REMARK    1  A    between atoms: C_1  and  O_20
REMARK    2  A    between atoms: C_2  and  O_3
REMARK    3  A    between atoms: C_4  and  O_5
REMARK    4  A    between atoms: C_6  and  O_7
REMARK    5  A    between atoms: C_8  and  C_10
REMARK    6  A    between atoms: C_10  and  O_11
REMARK    7  A    between atoms: C_13  and  O_14
REMARK    8  A    between atoms: C_15  and  O_16
REMARK    9  A    between atoms: C_17  and  O_18
REMARK   10  A    between atoms: C_19  and  O_20
REMARK   11  A    between atoms: C_21  and  C_23
REMARK   12  A    between atoms: C_23  and  O_25
REMARK                            x       y       z     vdW  Elec       q    Type
REMARK                         _______ _______ _______ _____ _____    ______ ____
ROOT
ATOM      1  O   UNL     1     -35.706  13.523 -15.902  0.00  0.00    -0.340 OA
ENDROOT
BRANCH   1   2
ATOM      2  C   UNL     1     -35.940  13.928 -17.244  0.00  0.00    +0.283 C 
ATOM      3  C   UNL     1     -36.837  15.187 -17.296  0.00  0.00    +0.201 C 
ATOM      4  C   UNL     1     -38.255  14.852 -16.802  0.00  0.00    +0.179 C 
ATOM      5  C   UNL     1     -38.800  13.621 -17.543  0.00  0.00    +0.185 C 
ATOM      6  C   UNL     1     -37.775  12.471 -17.454  0.00  0.00    +0.260 C 
ATOM      7  O   UNL     1     -36.519  12.864 -17.985  0.00  0.00    -0.332 OA
BRANCH   3   8
ATOM      8  O   UNL     1     -36.901  15.674 -18.613  0.00  0.00    -0.384 OA
ATOM      9  H   UNL     1     -37.221  14.926 -19.181  0.00  0.00    +0.210 HD
ENDBRANCH   3   8
BRANCH   4  10
ATOM     10  O   UNL     1     -39.113  15.944 -17.009  0.00  0.00    -0.386 OA
ATOM     11  H   UNL     1     -38.590  16.762 -16.796  0.00  0.00    +0.210 HD
ENDBRANCH   4  10
BRANCH   5  12
ATOM     12  O   UNL     1     -40.013  13.214 -16.961  0.00  0.00    -0.386 OA
ATOM     13  H   UNL     1     -40.724  13.373 -17.636  0.00  0.00    +0.210 HD
ENDBRANCH   5  12
BRANCH   6  14
ATOM     14  C   UNL     1     -38.270  11.283 -18.227  0.00  0.00    +0.337 C 
ATOM     15  O   UNL     1     -39.398  11.318 -18.789  0.00  0.00    -0.248 OA
BRANCH  14  16
ATOM     16  O   UNL     1     -37.495  10.129 -18.295  0.00  0.00    -0.479 OA
ATOM     17  H   UNL     1     -36.543  10.163 -18.638  0.00  0.00    +0.295 HD
ENDBRANCH  14  16
ENDBRANCH   6  14
ENDBRANCH   1   2
BRANCH   1  21
ATOM     18  C   UNL     1     -32.242  11.609 -14.748  0.00  0.00    +0.280 C 
ATOM     19  C   UNL     1     -32.407  13.028 -14.145  0.00  0.00    +0.201 C 
ATOM     20  C   UNL     1     -33.828  13.578 -14.399  0.00  0.00    +0.180 C 
ATOM     21  C   UNL     1     -34.393  13.015 -15.713  0.00  0.00    +0.192 C 
ATOM     22  C   UNL     1     -34.436  11.459 -15.609  0.00  0.00    +0.260 C 
ATOM     23  O   UNL     1     -33.469  10.898 -14.725  0.00  0.00    -0.332 OA
BRANCH  18  24
ATOM     24  O   UNL     1     -31.269  10.891 -14.036  0.00  0.00    -0.365 OA
ATOM     25  H   UNL     1     -31.361  11.143 -13.079  0.00  0.00    +0.213 HD
ENDBRANCH  18  24
BRANCH  19  26
ATOM     26  O   UNL     1     -31.448  13.889 -14.708  0.00  0.00    -0.384 OA
ATOM     27  H   UNL     1     -31.194  14.537 -14.000  0.00  0.00    +0.210 HD
ENDBRANCH  19  26
BRANCH  20  28
ATOM     28  O   UNL     1     -33.803  14.983 -14.436  0.00  0.00    -0.386 OA
ATOM     29  H   UNL     1     -32.964  15.246 -14.898  0.00  0.00    +0.210 HD
ENDBRANCH  20  28
BRANCH  22  30
ATOM     30  C   UNL     1     -34.355  10.793 -16.956  0.00  0.00    +0.337 C 
ATOM     31  O   UNL     1     -34.815   9.629 -17.110  0.00  0.00    -0.248 OA
BRANCH  30  32
ATOM     32  O   UNL     1     -33.753  11.441 -18.030  0.00  0.00    -0.479 OA
ATOM     33  H   UNL     1     -32.748  11.416 -18.155  0.00  0.00    +0.295 HD
ENDBRANCH  30  32
ENDBRANCH  22  30
ENDBRANCH   1  21
TORSDOF 12
ENDMDL
MODEL 7
REMARK VINA RESULT:    -6.585      2.270      3.444
REMARK INTER + INTRA:         -10.954
REMARK INTER:                  -9.512
REMARK INTRA:                  -1.442
REMARK UNBOUND:                -1.289
REMARK  Name = BEM
REMARK  12 active torsions:
REMARK  status: ('A' for Active; 'I' for Inactive)
REMARK    1  A    between atoms: C_1  and  O_20
REMARK    2  A    between atoms: C_2  and  O_3
REMARK    3  A    between atoms: C_4  and  O_5
REMARK    4  A    between atoms: C_6  and  O_7
REMARK    5  A    between atoms: C_8  and  C_10
REMARK    6  A    between atoms: C_10  and  O_11
REMARK    7  A    between atoms: C_13  and  O_14
REMARK    8  A    between atoms: C_15  and  O_16
REMARK    9  A    between atoms: C_17  and  O_18
REMARK   10  A    between atoms: C_19  and  O_20
REMARK   11  A    between atoms: C_21  and  C_23
REMARK   12  A    between atoms: C_23  and  O_25
REMARK                            x       y       z     vdW  Elec       q    Type
REMARK                         _______ _______ _______ _____ _____    ______ ____
ROOT
ATOM      1  O   UNL     1     -36.260  10.626 -15.031  0.00  0.00    -0.340 OA
ENDROOT
BRANCH   1   2
ATOM      2  C   UNL     1     -35.446   9.601 -14.476  0.00  0.00    +0.283 C 
ATOM      3  C   UNL     1     -35.382   9.715 -12.935  0.00  0.00    +0.201 C 
ATOM      4  C   UNL     1     -34.627  10.992 -12.526  0.00  0.00    +0.179 C 
ATOM      5  C   UNL     1     -33.274  11.065 -13.252  0.00  0.00    +0.185 C 
ATOM      6  C   UNL     1     -33.492  10.877 -14.768  0.00  0.00    +0.260 C 
ATOM      7  O   UNL     1     -34.145   9.647 -15.041  0.00  0.00    -0.332 OA
BRANCH   3   8
ATOM      8  O   UNL     1     -34.731   8.591 -12.400  0.00  0.00    -0.384 OA
ATOM      9  H   UNL     1     -34.468   8.826 -11.472  0.00  0.00    +0.210 HD
ENDBRANCH   3   8
BRANCH   4  10
ATOM     10  O   UNL     1     -34.419  11.010 -11.138  0.00  0.00    -0.386 OA
ATOM     11  H   UNL     1     -35.279  10.745 -10.717  0.00  0.00    +0.210 HD
ENDBRANCH   4  10
BRANCH   5  12
ATOM     12  O   UNL     1     -32.674  12.314 -13.015  0.00  0.00    -0.386 OA
ATOM     13  H   UNL     1     -32.654  12.442 -12.031  0.00  0.00    +0.210 HD
ENDBRANCH   5  12
BRANCH   6  14
ATOM     14  C   UNL     1     -32.170  10.885 -15.479  0.00  0.00    +0.337 C 
ATOM     15  O   UNL     1     -32.127  10.992 -16.735  0.00  0.00    -0.248 OA
BRANCH  14  16
ATOM     16  O   UNL     1     -30.992  10.739 -14.754  0.00  0.00    -0.479 OA
ATOM     17  H   UNL     1     -30.677  11.467 -14.123  0.00  0.00    +0.295 HD
ENDBRANCH  14  16
ENDBRANCH   6  14
ENDBRANCH   1   2
BRANCH   1  21
ATOM     18  C   UNL     1     -38.324  10.238 -18.578  0.00  0.00    +0.280 C 
ATOM     19  C   UNL     1     -39.149   9.844 -17.324  0.00  0.00    +0.201 C 
ATOM     20  C   UNL     1     -38.419  10.259 -16.027  0.00  0.00    +0.180 C 
ATOM     21  C   UNL     1     -36.897  10.219 -16.234  0.00  0.00    +0.192 C 
ATOM     22  C   UNL     1     -36.526  11.200 -17.388  0.00  0.00    +0.260 C 
ATOM     23  O   UNL     1     -37.564  11.411 -18.342  0.00  0.00    -0.332 OA
BRANCH  18  24
ATOM     24  O   UNL     1     -39.178  10.442 -19.673  0.00  0.00    -0.365 OA
ATOM     25  H   UNL     1     -38.610  10.710 -20.442  0.00  0.00    +0.213 HD
ENDBRANCH  18  24
BRANCH  19  26
ATOM     26  O   UNL     1     -39.374   8.456 -17.330  0.00  0.00    -0.384 OA
ATOM     27  H   UNL     1     -39.044   8.116 -18.203  0.00  0.00    +0.210 HD
ENDBRANCH  19  26
BRANCH  20  28
ATOM     28  O   UNL     1     -38.795   9.411 -14.970  0.00  0.00    -0.386 OA
ATOM     29  H   UNL     1     -37.965   8.981 -14.634  0.00  0.00    +0.210 HD
ENDBRANCH  20  28
BRANCH  22  30
ATOM     30  C   UNL     1     -35.252  10.807 -18.087  0.00  0.00    +0.337 C 
ATOM     31  O   UNL     1     -34.998   9.589 -18.291  0.00  0.00    -0.248 OA
BRANCH  30  32
ATOM     32  O   UNL     1     -34.339  11.777 -18.490  0.00  0.00    -0.479 OA
ATOM     33  H   UNL     1     -34.603  12.754 -18.532  0.00  0.00    +0.295 HD
ENDBRANCH  30  32
ENDBRANCH  22  30
ENDBRANCH   1  21
TORSDOF 12
ENDMDL
MODEL 8
REMARK VINA RESULT:    -6.526      1.769      4.015
REMARK INTER + INTRA:         -10.866
REMARK INTER:                  -9.167
REMARK INTRA:                  -1.700
REMARK UNBOUND:                -1.289
REMARK  Name = BEM
REMARK  12 active torsions:
REMARK  status: ('A' for Active; 'I' for Inactive)
REMARK    1  A    between atoms: C_1  and  O_20
REMARK    2  A    between atoms: C_2  and  O_3
REMARK    3  A    between atoms: C_4  and  O_5
REMARK    4  A    between atoms: C_6  and  O_7
REMARK    5  A    between atoms: C_8  and  C_10
REMARK    6  A    between atoms: C_10  and  O_11
REMARK    7  A    between atoms: C_13  and  O_14
REMARK    8  A    between atoms: C_15  and  O_16
REMARK    9  A    between atoms: C_17  and  O_18
REMARK   10  A    between atoms: C_19  and  O_20
REMARK   11  A    between atoms: C_21  and  C_23
REMARK   12  A    between atoms: C_23  and  O_25
REMARK                            x       y       z     vdW  Elec       q    Type
REMARK                         _______ _______ _______ _____ _____    ______ ____
ROOT
ATOM      1  O   UNL     1     -34.971  10.515 -15.831  0.00  0.00    -0.340 OA
ENDROOT
BRANCH   1   2
ATOM      2  C   UNL     1     -34.225  11.725 -15.799  0.00  0.00    +0.283 C 
ATOM      3  C   UNL     1     -32.969  11.580 -14.908  0.00  0.00    +0.201 C 
ATOM      4  C   UNL     1     -33.379  11.407 -13.435  0.00  0.00    +0.179 C 
ATOM      5  C   UNL     1     -34.359  12.516 -13.020  0.00  0.00    +0.185 C 
ATOM      6  C   UNL     1     -35.523  12.578 -14.032  0.00  0.00    +0.260 C 
ATOM      7  O   UNL     1     -35.044  12.794 -15.350  0.00  0.00    -0.332 OA
BRANCH   3   8
ATOM      8  O   UNL     1     -32.157  12.719 -15.040  0.00  0.00    -0.384 OA
ATOM      9  H   UNL     1     -32.527  13.251 -15.792  0.00  0.00    +0.210 HD
ENDBRANCH   3   8
BRANCH   4  10
ATOM     10  O   UNL     1     -32.245  11.448 -12.608  0.00  0.00    -0.386 OA
ATOM     11  H   UNL     1     -31.982  10.505 -12.436  0.00  0.00    +0.210 HD
ENDBRANCH   4  10
BRANCH   5  12
ATOM     12  O   UNL     1     -34.866  12.247 -11.738  0.00  0.00    -0.386 OA
ATOM     13  H   UNL     1     -34.163  12.512 -11.088  0.00  0.00    +0.210 HD
ENDBRANCH   5  12
BRANCH   6  14
ATOM     14  C   UNL     1     -36.454  13.698 -13.672  0.00  0.00    +0.337 C 
ATOM     15  O   UNL     1     -36.176  14.471 -12.715  0.00  0.00    -0.248 OA
BRANCH  14  16
ATOM     16  O   UNL     1     -37.644  13.862 -14.373  0.00  0.00    -0.479 OA
ATOM     17  H   UNL     1     -37.639  14.024 -15.374  0.00  0.00    +0.295 HD
ENDBRANCH  14  16
ENDBRANCH   6  14
ENDBRANCH   1   2
BRANCH   1  21
ATOM     18  C   UNL     1     -37.427   9.423 -18.956  0.00  0.00    +0.280 C 
ATOM     19  C   UNL     1     -35.965   8.930 -19.104  0.00  0.00    +0.201 C 
ATOM     20  C   UNL     1     -35.172   9.140 -17.795  0.00  0.00    +0.180 C 
ATOM     21  C   UNL     1     -35.706  10.366 -17.038  0.00  0.00    +0.192 C 
ATOM     22  C   UNL     1     -37.214  10.132 -16.714  0.00  0.00    +0.260 C 
ATOM     23  O   UNL     1     -37.887   9.266 -17.624  0.00  0.00    -0.332 OA
BRANCH  18  24
ATOM     24  O   UNL     1     -38.267   8.715 -19.830  0.00  0.00    -0.365 OA
ATOM     25  H   UNL     1     -38.096   7.748 -19.681  0.00  0.00    +0.213 HD
ENDBRANCH  18  24
BRANCH  19  26
ATOM     26  O   UNL     1     -35.344   9.619 -20.162  0.00  0.00    -0.384 OA
ATOM     27  H   UNL     1     -35.922  10.398 -20.374  0.00  0.00    +0.210 HD
ENDBRANCH  19  26
BRANCH  20  28
ATOM     28  O   UNL     1     -33.803   9.294 -18.079  0.00  0.00    -0.386 OA
ATOM     29  H   UNL     1     -33.311   9.118 -17.235  0.00  0.00    +0.210 HD
ENDBRANCH  20  28
BRANCH  22  30
ATOM     30  C   UNL     1     -37.975  11.422 -16.567  0.00  0.00    +0.337 C 
ATOM     31  O   UNL     1     -39.064  11.440 -15.932  0.00  0.00    -0.248 OA
BRANCH  30  32
ATOM     32  O   UNL     1     -37.499  12.594 -17.149  0.00  0.00    -0.479 OA
ATOM     33  H   UNL     1     -36.733  13.108 -16.730  0.00  0.00    +0.295 HD
ENDBRANCH  30  32
ENDBRANCH  22  30
ENDBRANCH   1  21
TORSDOF 12
ENDMDL
MODEL 9
REMARK VINA RESULT:    -6.498      1.453      6.272
REMARK INTER + INTRA:         -10.825
REMARK INTER:                  -9.945
REMARK INTRA:                  -0.881
REMARK UNBOUND:                -1.289
REMARK  Name = BEM
REMARK  12 active torsions:
REMARK  status: ('A' for Active; 'I' for Inactive)
REMARK    1  A    between atoms: C_1  and  O_20
REMARK    2  A    between atoms: C_2  and  O_3
REMARK    3  A    between atoms: C_4  and  O_5
REMARK    4  A    between atoms: C_6  and  O_7
REMARK    5  A    between atoms: C_8  and  C_10
REMARK    6  A    between atoms: C_10  and  O_11
REMARK    7  A    between atoms: C_13  and  O_14
REMARK    8  A    between atoms: C_15  and  O_16
REMARK    9  A    between atoms: C_17  and  O_18
REMARK   10  A    between atoms: C_19  and  O_20
REMARK   11  A    between atoms: C_21  and  C_23
REMARK   12  A    between atoms: C_23  and  O_25
REMARK                            x       y       z     vdW  Elec       q    Type
REMARK                         _______ _______ _______ _____ _____    ______ ____
ROOT
ATOM      1  O   UNL     1     -36.103  11.231 -15.605  0.00  0.00    -0.340 OA
ENDROOT
BRANCH   1   2
ATOM      2  C   UNL     1     -36.293  11.914 -16.836  0.00  0.00    +0.283 C 
ATOM      3  C   UNL     1     -37.708  12.533 -16.916  0.00  0.00    +0.201 C 
ATOM      4  C   UNL     1     -38.772  11.423 -16.989  0.00  0.00    +0.179 C 
ATOM      5  C   UNL     1     -38.423  10.424 -18.103  0.00  0.00    +0.185 C 
ATOM      6  C   UNL     1     -36.968   9.941 -17.925  0.00  0.00    +0.260 C 
ATOM      7  O   UNL     1     -36.063  11.035 -17.927  0.00  0.00    -0.332 OA
BRANCH   3   8
ATOM      8  O   UNL     1     -37.807  13.354 -18.052  0.00  0.00    -0.384 OA
ATOM      9  H   UNL     1     -38.188  14.220 -17.749  0.00  0.00    +0.210 HD
ENDBRANCH   3   8
BRANCH   4  10
ATOM     10  O   UNL     1     -40.038  11.979 -17.233  0.00  0.00    -0.386 OA
ATOM     11  H   UNL     1     -40.377  12.311 -16.361  0.00  0.00    +0.210 HD
ENDBRANCH   4  10
BRANCH   5  12
ATOM     12  O   UNL     1     -39.293   9.322 -18.043  0.00  0.00    -0.386 OA
ATOM     13  H   UNL     1     -39.968   9.525 -17.343  0.00  0.00    +0.210 HD
ENDBRANCH   5  12
BRANCH   6  14
ATOM     14  C   UNL     1     -36.597   9.012 -19.044  0.00  0.00    +0.337 C 
ATOM     15  O   UNL     1     -37.167   7.893 -19.154  0.00  0.00    -0.248 OA
BRANCH  14  16
ATOM     16  O   UNL     1     -35.596   9.373 -19.941  0.00  0.00    -0.479 OA
ATOM     17  H   UNL     1     -35.327   8.753 -20.695  0.00  0.00    +0.295 HD
ENDBRANCH  14  16
ENDBRANCH   6  14
ENDBRANCH   1   2
BRANCH   1  21
ATOM     18  C   UNL     1     -32.533  12.867 -14.352  0.00  0.00    +0.280 C 
ATOM     19  C   UNL     1     -32.377  11.520 -15.105  0.00  0.00    +0.201 C 
ATOM     20  C   UNL     1     -33.706  11.099 -15.770  0.00  0.00    +0.180 C 
ATOM     21  C   UNL     1     -34.901  11.616 -14.953  0.00  0.00    +0.192 C 
ATOM     22  C   UNL     1     -34.815  13.172 -14.878  0.00  0.00    +0.260 C 
ATOM     23  O   UNL     1     -33.494  13.697 -14.982  0.00  0.00    -0.332 OA
BRANCH  18  24
ATOM     24  O   UNL     1     -31.299  13.533 -14.295  0.00  0.00    -0.365 OA
ATOM     25  H   UNL     1     -31.270  14.163 -15.062  0.00  0.00    +0.213 HD
ENDBRANCH  18  24
BRANCH  19  26
ATOM     26  O   UNL     1     -31.951  10.527 -14.204  0.00  0.00    -0.384 OA
ATOM     27  H   UNL     1     -32.585   9.768 -14.294  0.00  0.00    +0.210 HD
ENDBRANCH  19  26
BRANCH  20  28
ATOM     28  O   UNL     1     -33.763   9.699 -15.892  0.00  0.00    -0.386 OA
ATOM     29  H   UNL     1     -33.160   9.323 -15.199  0.00  0.00    +0.210 HD
ENDBRANCH  20  28
BRANCH  22  30
ATOM     30  C   UNL     1     -35.496  13.724 -13.655  0.00  0.00    +0.337 C 
ATOM     31  O   UNL     1     -36.687  14.132 -13.730  0.00  0.00    -0.248 OA
BRANCH  30  32
ATOM     32  O   UNL     1     -34.815  13.812 -12.445  0.00  0.00    -0.479 OA
ATOM     33  H   UNL     1     -34.131  13.113 -12.182  0.00  0.00    +0.295 HD
ENDBRANCH  30  32
ENDBRANCH  22  30
ENDBRANCH   1  21
TORSDOF 12
ENDMDL
MODEL 10
REMARK VINA RESULT:    -6.446      1.577      6.106
REMARK INTER + INTRA:         -10.749
REMARK INTER:                  -9.269
REMARK INTRA:                  -1.480
REMARK UNBOUND:                -1.289
REMARK  Name = BEM
REMARK  12 active torsions:
REMARK  status: ('A' for Active; 'I' for Inactive)
REMARK    1  A    between atoms: C_1  and  O_20
REMARK    2  A    between atoms: C_2  and  O_3
REMARK    3  A    between atoms: C_4  and  O_5
REMARK    4  A    between atoms: C_6  and  O_7
REMARK    5  A    between atoms: C_8  and  C_10
REMARK    6  A    between atoms: C_10  and  O_11
REMARK    7  A    between atoms: C_13  and  O_14
REMARK    8  A    between atoms: C_15  and  O_16
REMARK    9  A    between atoms: C_17  and  O_18
REMARK   10  A    between atoms: C_19  and  O_20
REMARK   11  A    between atoms: C_21  and  C_23
REMARK   12  A    between atoms: C_23  and  O_25
REMARK                            x       y       z     vdW  Elec       q    Type
REMARK                         _______ _______ _______ _____ _____    ______ ____
ROOT
ATOM      1  O   UNL     1     -36.388  11.622 -15.898  0.00  0.00    -0.340 OA
ENDROOT
BRANCH   1   2
ATOM      2  C   UNL     1     -37.031  12.081 -17.080  0.00  0.00    +0.283 C 
ATOM      3  C   UNL     1     -38.562  12.172 -16.881  0.00  0.00    +0.201 C 
ATOM      4  C   UNL     1     -39.161  10.766 -16.706  0.00  0.00    +0.179 C 
ATOM      5  C   UNL     1     -38.697   9.843 -17.844  0.00  0.00    +0.185 C 
ATOM      6  C   UNL     1     -37.159   9.902 -17.958  0.00  0.00    +0.260 C 
ATOM      7  O   UNL     1     -36.713  11.232 -18.173  0.00  0.00    -0.332 OA
BRANCH   3   8
ATOM      8  O   UNL     1     -39.151  12.800 -17.991  0.00  0.00    -0.384 OA
ATOM      9  H   UNL     1     -40.096  12.499 -18.024  0.00  0.00    +0.210 HD
ENDBRANCH   3   8
BRANCH   4  10
ATOM     10  O   UNL     1     -40.564  10.833 -16.697  0.00  0.00    -0.386 OA
ATOM     11  H   UNL     1     -40.894   9.904 -16.577  0.00  0.00    +0.210 HD
ENDBRANCH   4  10
BRANCH   5  12
ATOM     12  O   UNL     1     -39.097   8.523 -17.579  0.00  0.00    -0.386 OA
ATOM     13  H   UNL     1     -38.941   8.002 -18.410  0.00  0.00    +0.210 HD
ENDBRANCH   5  12
BRANCH   6  14
ATOM     14  C   UNL     1     -36.699   9.052 -19.107  0.00  0.00    +0.337 C 
ATOM     15  O   UNL     1     -35.498   9.100 -19.489  0.00  0.00    -0.248 OA
BRANCH  14  16
ATOM     16  O   UNL     1     -37.608   8.237 -19.772  0.00  0.00    -0.479 OA
ATOM     17  H   UNL     1     -37.398   7.261 -19.949  0.00  0.00    +0.295 HD
ENDBRANCH  14  16
ENDBRANCH   6  14
ENDBRANCH   1   2
BRANCH   1  21
ATOM     18  C   UNL     1     -32.931  13.272 -14.378  0.00  0.00    +0.280 C 
ATOM     19  C   UNL     1     -34.222  14.024 -13.962  0.00  0.00    +0.201 C 
ATOM     20  C   UNL     1     -35.482  13.214 -14.338  0.00  0.00    +0.180 C 
ATOM     21  C   UNL     1     -35.219  12.369 -15.595  0.00  0.00    +0.192 C 
ATOM     22  C   UNL     1     -34.033  11.399 -15.301  0.00  0.00    +0.260 C 
ATOM     23  O   UNL     1     -33.115  11.868 -14.316  0.00  0.00    -0.332 OA
BRANCH  18  24
ATOM     24  O   UNL     1     -31.865  13.644 -13.543  0.00  0.00    -0.365 OA
ATOM     25  H   UNL     1     -32.163  14.436 -13.022  0.00  0.00    +0.213 HD
ENDBRANCH  18  24
BRANCH  19  26
ATOM     26  O   UNL     1     -34.251  15.283 -14.587  0.00  0.00    -0.384 OA
ATOM     27  H   UNL     1     -33.322  15.483 -14.874  0.00  0.00    +0.210 HD
ENDBRANCH  19  26
BRANCH  20  28
ATOM     28  O   UNL     1     -36.569  14.082 -14.548  0.00  0.00    -0.386 OA
ATOM     29  H   UNL     1     -37.380  13.617 -14.215  0.00  0.00    +0.210 HD
ENDBRANCH  20  28
BRANCH  22  30
ATOM     30  C   UNL     1     -33.293  11.003 -16.551  0.00  0.00    +0.337 C 
ATOM     31  O   UNL     1     -32.152  10.475 -16.465  0.00  0.00    -0.248 OA
BRANCH  30  32
ATOM     32  O   UNL     1     -33.849  11.239 -17.805  0.00  0.00    -0.479 OA
ATOM     33  H   UNL     1     -34.850  11.338 -17.919  0.00  0.00    +0.295 HD
ENDBRANCH  30  32
ENDBRANCH  22  30
ENDBRANCH   1  21
TORSDOF 12
ENDMDL
MODEL 11
REMARK VINA RESULT:    -6.400      1.988      3.774
REMARK INTER + INTRA:         -10.682
REMARK INTER:                  -9.675
REMARK INTRA:                  -1.008
REMARK UNBOUND:                -1.289
REMARK  Name = BEM
REMARK  12 active torsions:
REMARK  status: ('A' for Active; 'I' for Inactive)
REMARK    1  A    between atoms: C_1  and  O_20
REMARK    2  A    between atoms: C_2  and  O_3
REMARK    3  A    between atoms: C_4  and  O_5
REMARK    4  A    between atoms: C_6  and  O_7
REMARK    5  A    between atoms: C_8  and  C_10
REMARK    6  A    between atoms: C_10  and  O_11
REMARK    7  A    between atoms: C_13  and  O_14
REMARK    8  A    between atoms: C_15  and  O_16
REMARK    9  A    between atoms: C_17  and  O_18
REMARK   10  A    between atoms: C_19  and  O_20
REMARK   11  A    between atoms: C_21  and  C_23
REMARK   12  A    between atoms: C_23  and  O_25
REMARK                            x       y       z     vdW  Elec       q    Type
REMARK                         _______ _______ _______ _____ _____    ______ ____
ROOT
ATOM      1  O   UNL     1     -34.784  13.220 -16.309  0.00  0.00    -0.340 OA
ENDROOT
BRANCH   1   2
ATOM      2  C   UNL     1     -34.963  13.207 -14.899  0.00  0.00    +0.283 C 
ATOM      3  C   UNL     1     -33.862  14.032 -14.191  0.00  0.00    +0.201 C 
ATOM      4  C   UNL     1     -32.495  13.347 -14.355  0.00  0.00    +0.179 C 
ATOM      5  C   UNL     1     -32.585  11.870 -13.938  0.00  0.00    +0.185 C 
ATOM      6  C   UNL     1     -33.760  11.198 -14.679  0.00  0.00    +0.260 C 
ATOM      7  O   UNL     1     -34.981  11.871 -14.419  0.00  0.00    -0.332 OA
BRANCH   3   8
ATOM      8  O   UNL     1     -34.165  14.158 -12.825  0.00  0.00    -0.384 OA
ATOM      9  H   UNL     1     -33.375  14.576 -12.393  0.00  0.00    +0.210 HD
ENDBRANCH   3   8
BRANCH   4  10
ATOM     10  O   UNL     1     -31.528  13.999 -13.573  0.00  0.00    -0.386 OA
ATOM     11  H   UNL     1     -31.616  14.970 -13.761  0.00  0.00    +0.210 HD
ENDBRANCH   4  10
BRANCH   5  12
ATOM     12  O   UNL     1     -31.387  11.210 -14.261  0.00  0.00    -0.386 OA
ATOM     13  H   UNL     1     -31.409  10.331 -13.801  0.00  0.00    +0.210 HD
ENDBRANCH   5  12
BRANCH   6  14
ATOM     14  C   UNL     1     -33.897   9.771 -14.233  0.00  0.00    +0.337 C 
ATOM     15  O   UNL     1     -33.347   9.385 -13.166  0.00  0.00    -0.248 OA
BRANCH  14  16
ATOM     16  O   UNL     1     -34.602   8.865 -15.018  0.00  0.00    -0.479 OA
ATOM     17  H   UNL     1     -35.590   8.701 -14.861  0.00  0.00    +0.295 HD
ENDBRANCH  14  16
ENDBRANCH   6  14
ENDBRANCH   1   2
BRANCH   1  21
ATOM     18  C   UNL     1     -38.692  13.461 -17.596  0.00  0.00    +0.280 C 
ATOM     19  C   UNL     1     -38.185  12.009 -17.395  0.00  0.00    +0.201 C 
ATOM     20  C   UNL     1     -36.822  11.992 -16.669  0.00  0.00    +0.180 C 
ATOM     21  C   UNL     1     -36.019  13.258 -17.010  0.00  0.00    +0.192 C 
ATOM     22  C   UNL     1     -36.843  14.505 -16.563  0.00  0.00    +0.260 C 
ATOM     23  O   UNL     1     -38.255  14.305 -16.545  0.00  0.00    -0.332 OA
BRANCH  18  24
ATOM     24  O   UNL     1     -40.095  13.477 -17.660  0.00  0.00    -0.365 OA
ATOM     25  H   UNL     1     -40.410  12.569 -17.414  0.00  0.00    +0.213 HD
ENDBRANCH  18  24
BRANCH  19  26
ATOM     26  O   UNL     1     -38.075  11.376 -18.646  0.00  0.00    -0.384 OA
ATOM     27  H   UNL     1     -38.445  10.461 -18.538  0.00  0.00    +0.210 HD
ENDBRANCH  19  26
BRANCH  20  28
ATOM     28  O   UNL     1     -36.098  10.840 -17.026  0.00  0.00    -0.386 OA
ATOM     29  H   UNL     1     -35.443  11.112 -17.720  0.00  0.00    +0.210 HD
ENDBRANCH  20  28
BRANCH  22  30
ATOM     30  C   UNL     1     -36.504  15.733 -17.365  0.00  0.00    +0.337 C 
ATOM     31  O   UNL     1     -36.268  16.822 -16.775  0.00  0.00    -0.248 OA
BRANCH  30  32
ATOM     32  O   UNL     1     -36.475  15.683 -18.755  0.00  0.00    -0.479 OA
ATOM     33  H   UNL     1     -36.098  14.876 -19.238  0.00  0.00    +0.295 HD
ENDBRANCH  30  32
ENDBRANCH  22  30
ENDBRANCH   1  21
TORSDOF 12
ENDMDL
MODEL 12
REMARK VINA RESULT:    -6.336      3.174      5.273
REMARK INTER + INTRA:         -10.588
REMARK INTER:                  -9.437
REMARK INTRA:                  -1.151
REMARK UNBOUND:                -1.289
REMARK  Name = BEM
REMARK  12 active torsions:
REMARK  status: ('A' for Active; 'I' for Inactive)
REMARK    1  A    between atoms: C_1  and  O_20
REMARK    2  A    between atoms: C_2  and  O_3
REMARK    3  A    between atoms: C_4  and  O_5
REMARK    4  A    between atoms: C_6  and  O_7
REMARK    5  A    between atoms: C_8  and  C_10
REMARK    6  A    between atoms: C_10  and  O_11
REMARK    7  A    between atoms: C_13  and  O_14
REMARK    8  A    between atoms: C_15  and  O_16
REMARK    9  A    between atoms: C_17  and  O_18
REMARK   10  A    between atoms: C_19  and  O_20
REMARK   11  A    between atoms: C_21  and  C_23
REMARK   12  A    between atoms: C_23  and  O_25
REMARK                            x       y       z     vdW  Elec       q    Type
REMARK                         _______ _______ _______ _____ _____    ______ ____
ROOT
ATOM      1  O   UNL     1     -35.575  11.077 -13.083  0.00  0.00    -0.340 OA
ENDROOT
BRANCH   1   2
ATOM      2  C   UNL     1     -35.764  12.393 -12.580  0.00  0.00    +0.283 C 
ATOM      3  C   UNL     1     -36.861  13.140 -13.374  0.00  0.00    +0.201 C 
ATOM      4  C   UNL     1     -36.390  13.404 -14.815  0.00  0.00    +0.179 C 
ATOM      5  C   UNL     1     -35.007  14.073 -14.809  0.00  0.00    +0.185 C 
ATOM      6  C   UNL     1     -34.040  13.249 -13.932  0.00  0.00    +0.260 C 
ATOM      7  O   UNL     1     -34.540  13.111 -12.611  0.00  0.00    -0.332 OA
BRANCH   3   8
ATOM      8  O   UNL     1     -37.158  14.361 -12.745  0.00  0.00    -0.384 OA
ATOM      9  H   UNL     1     -37.088  15.067 -13.439  0.00  0.00    +0.210 HD
ENDBRANCH   3   8
BRANCH   4  10
ATOM     10  O   UNL     1     -37.310  14.227 -15.483  0.00  0.00    -0.386 OA
ATOM     11  H   UNL     1     -37.916  14.600 -14.790  0.00  0.00    +0.210 HD
ENDBRANCH   4  10
BRANCH   5  12
ATOM     12  O   UNL     1     -34.507  14.144 -16.120  0.00  0.00    -0.386 OA
ATOM     13  H   UNL     1     -34.645  15.077 -16.432  0.00  0.00    +0.210 HD
ENDBRANCH   5  12
BRANCH   6  14
ATOM     14  C   UNL     1     -32.703  13.928 -13.869  0.00  0.00    +0.337 C 
ATOM     15  O   UNL     1     -32.539  14.940 -13.134  0.00  0.00    -0.248 OA
BRANCH  14  16
ATOM     16  O   UNL     1     -31.651  13.459 -14.650  0.00  0.00    -0.479 OA
ATOM     17  H   UNL     1     -31.616  13.653 -15.644  0.00  0.00    +0.295 HD
ENDBRANCH  14  16
ENDBRANCH   6  14
ENDBRANCH   1   2
BRANCH   1  21
ATOM     18  C   UNL     1     -33.512   8.127 -11.076  0.00  0.00    +0.280 C 
ATOM     19  C   UNL     1     -34.989   8.275 -10.630  0.00  0.00    +0.201 C 
ATOM     20  C   UNL     1     -35.770   9.201 -11.589  0.00  0.00    +0.180 C 
ATOM     21  C   UNL     1     -34.832  10.259 -12.191  0.00  0.00    +0.192 C 
ATOM     22  C   UNL     1     -33.692   9.530 -12.967  0.00  0.00    +0.260 C 
ATOM     23  O   UNL     1     -33.391   8.222 -12.485  0.00  0.00    -0.332 OA
BRANCH  18  24
ATOM     24  O   UNL     1     -32.997   6.895 -10.642  0.00  0.00    -0.365 OA
ATOM     25  H   UNL     1     -33.754   6.382 -10.254  0.00  0.00    +0.213 HD
ENDBRANCH  18  24
BRANCH  19  26
ATOM     26  O   UNL     1     -35.033   8.787  -9.321  0.00  0.00    -0.384 OA
ATOM     27  H   UNL     1     -35.960   8.652  -8.991  0.00  0.00    +0.210 HD
ENDBRANCH  19  26
BRANCH  20  28
ATOM     28  O   UNL     1     -36.833   9.817 -10.907  0.00  0.00    -0.386 OA
ATOM     29  H   UNL     1     -36.871  10.759 -11.219  0.00  0.00    +0.210 HD
ENDBRANCH  20  28
BRANCH  22  30
ATOM     30  C   UNL     1     -32.434  10.354 -13.047  0.00  0.00    +0.337 C 
ATOM     31  O   UNL     1     -32.009  10.951 -12.021  0.00  0.00    -0.248 OA
BRANCH  30  32
ATOM     32  O   UNL     1     -31.750  10.483 -14.251  0.00  0.00    -0.479 OA
ATOM     33  H   UNL     1     -30.800  10.834 -14.274  0.00  0.00    +0.295 HD
ENDBRANCH  30  32
ENDBRANCH  22  30
ENDBRANCH   1  21
TORSDOF 12
ENDMDL
MODEL 13
REMARK VINA RESULT:    -6.330      3.277      5.887
REMARK INTER + INTRA:         -10.579
REMARK INTER:                  -9.171
REMARK INTRA:                  -1.408
REMARK UNBOUND:                -1.289
REMARK  Name = BEM
REMARK  12 active torsions:
REMARK  status: ('A' for Active; 'I' for Inactive)
REMARK    1  A    between atoms: C_1  and  O_20
REMARK    2  A    between atoms: C_2  and  O_3
REMARK    3  A    between atoms: C_4  and  O_5
REMARK    4  A    between atoms: C_6  and  O_7
REMARK    5  A    between atoms: C_8  and  C_10
REMARK    6  A    between atoms: C_10  and  O_11
REMARK    7  A    between atoms: C_13  and  O_14
REMARK    8  A    between atoms: C_15  and  O_16
REMARK    9  A    between atoms: C_17  and  O_18
REMARK   10  A    between atoms: C_19  and  O_20
REMARK   11  A    between atoms: C_21  and  C_23
REMARK   12  A    between atoms: C_23  and  O_25
REMARK                            x       y       z     vdW  Elec       q    Type
REMARK                         _______ _______ _______ _____ _____    ______ ____
ROOT
ATOM      1  O   UNL     1     -35.264  11.550 -12.784  0.00  0.00    -0.340 OA
ENDROOT
BRANCH   1   2
ATOM      2  C   UNL     1     -34.360  12.519 -13.300  0.00  0.00    +0.283 C 
ATOM      3  C   UNL     1     -35.118  13.754 -13.839  0.00  0.00    +0.201 C 
ATOM      4  C   UNL     1     -35.937  13.375 -15.085  0.00  0.00    +0.179 C 
ATOM      5  C   UNL     1     -35.049  12.646 -16.106  0.00  0.00    +0.185 C 
ATOM      6  C   UNL     1     -34.317  11.480 -15.410  0.00  0.00    +0.260 C 
ATOM      7  O   UNL     1     -33.547  11.942 -14.311  0.00  0.00    -0.332 OA
BRANCH   3   8
ATOM      8  O   UNL     1     -34.202  14.769 -14.169  0.00  0.00    -0.384 OA
ATOM      9  H   UNL     1     -33.945  15.211 -13.319  0.00  0.00    +0.210 HD
ENDBRANCH   3   8
BRANCH   4  10
ATOM     10  O   UNL     1     -36.486  14.525 -15.674  0.00  0.00    -0.386 OA
ATOM     11  H   UNL     1     -36.720  15.143 -14.932  0.00  0.00    +0.210 HD
ENDBRANCH   4  10
BRANCH   5  12
ATOM     12  O   UNL     1     -35.841  12.145 -17.153  0.00  0.00    -0.386 OA
ATOM     13  H   UNL     1     -36.041  11.197 -16.935  0.00  0.00    +0.210 HD
ENDBRANCH   5  12
BRANCH   6  14
ATOM     14  C   UNL     1     -33.399  10.799 -16.383  0.00  0.00    +0.337 C 
ATOM     15  O   UNL     1     -33.852   9.942 -17.189  0.00  0.00    -0.248 OA
BRANCH  14  16
ATOM     16  O   UNL     1     -32.038  11.090 -16.371  0.00  0.00    -0.479 OA
ATOM     17  H   UNL     1     -31.682  11.884 -15.852  0.00  0.00    +0.295 HD
ENDBRANCH  14  16
ENDBRANCH   6  14
ENDBRANCH   1   2
BRANCH   1  21
ATOM     18  C   UNL     1     -34.575   9.359  -9.362  0.00  0.00    +0.280 C 
ATOM     19  C   UNL     1     -35.196  10.755  -9.100  0.00  0.00    +0.201 C 
ATOM     20  C   UNL     1     -35.669  11.410 -10.417  0.00  0.00    +0.180 C 
ATOM     21  C   UNL     1     -34.788  10.949 -11.589  0.00  0.00    +0.192 C 
ATOM     22  C   UNL     1     -34.885   9.396 -11.703  0.00  0.00    +0.260 C 
ATOM     23  O   UNL     1     -35.183   8.730 -10.478  0.00  0.00    -0.332 OA
BRANCH  18  24
ATOM     24  O   UNL     1     -34.719   8.546  -8.227  0.00  0.00    -0.365 OA
ATOM     25  H   UNL     1     -35.690   8.494  -8.025  0.00  0.00    +0.213 HD
ENDBRANCH  18  24
BRANCH  19  26
ATOM     26  O   UNL     1     -34.248  11.577  -8.465  0.00  0.00    -0.384 OA
ATOM     27  H   UNL     1     -33.410  11.048  -8.398  0.00  0.00    +0.210 HD
ENDBRANCH  19  26
BRANCH  20  28
ATOM     28  O   UNL     1     -35.638  12.810 -10.299  0.00  0.00    -0.386 OA
ATOM     29  H   UNL     1     -35.117  13.021  -9.480  0.00  0.00    +0.210 HD
ENDBRANCH  20  28
BRANCH  22  30
ATOM     30  C   UNL     1     -33.660   8.791 -12.336  0.00  0.00    +0.337 C 
ATOM     31  O   UNL     1     -33.489   7.542 -12.303  0.00  0.00    -0.248 OA
BRANCH  30  32
ATOM     32  O   UNL     1     -32.702   9.601 -12.937  0.00  0.00    -0.479 OA
ATOM     33  H   UNL     1     -32.610  10.576 -12.679  0.00  0.00    +0.295 HD
ENDBRANCH  30  32
ENDBRANCH  22  30
ENDBRANCH   1  21
TORSDOF 12
ENDMDL
MODEL 14
REMARK VINA RESULT:    -6.294      1.533      3.216
REMARK INTER + INTRA:         -10.527
REMARK INTER:                  -9.824
REMARK INTRA:                  -0.703
REMARK UNBOUND:                -1.289
REMARK  Name = BEM
REMARK  12 active torsions:
REMARK  status: ('A' for Active; 'I' for Inactive)
REMARK    1  A    between atoms: C_1  and  O_20
REMARK    2  A    between atoms: C_2  and  O_3
REMARK    3  A    between atoms: C_4  and  O_5
REMARK    4  A    between atoms: C_6  and  O_7
REMARK    5  A    between atoms: C_8  and  C_10
REMARK    6  A    between atoms: C_10  and  O_11
REMARK    7  A    between atoms: C_13  and  O_14
REMARK    8  A    between atoms: C_15  and  O_16
REMARK    9  A    between atoms: C_17  and  O_18
REMARK   10  A    between atoms: C_19  and  O_20
REMARK   11  A    between atoms: C_21  and  C_23
REMARK   12  A    between atoms: C_23  and  O_25
REMARK                            x       y       z     vdW  Elec       q    Type
REMARK                         _______ _______ _______ _____ _____    ______ ____
ROOT
ATOM      1  O   UNL     1     -34.179  11.919 -16.566  0.00  0.00    -0.340 OA
ENDROOT
BRANCH   1   2
ATOM      2  C   UNL     1     -34.862  12.307 -15.381  0.00  0.00    +0.283 C 
ATOM      3  C   UNL     1     -34.093  13.424 -14.637  0.00  0.00    +0.201 C 
ATOM      4  C   UNL     1     -32.764  12.879 -14.085  0.00  0.00    +0.179 C 
ATOM      5  C   UNL     1     -33.009  11.594 -13.279  0.00  0.00    +0.185 C 
ATOM      6  C   UNL     1     -33.834  10.603 -14.127  0.00  0.00    +0.260 C 
ATOM      7  O   UNL     1     -35.063  11.183 -14.539  0.00  0.00    -0.332 OA
BRANCH   3   8
ATOM      8  O   UNL     1     -34.875  13.918 -13.578  0.00  0.00    -0.384 OA
ATOM      9  H   UNL     1     -34.536  14.827 -13.371  0.00  0.00    +0.210 HD
ENDBRANCH   3   8
BRANCH   4  10
ATOM     10  O   UNL     1     -32.148  13.839 -13.267  0.00  0.00    -0.386 OA
ATOM     11  H   UNL     1     -31.767  14.529 -13.872  0.00  0.00    +0.210 HD
ENDBRANCH   4  10
BRANCH   5  12
ATOM     12  O   UNL     1     -31.780  11.006 -12.935  0.00  0.00    -0.386 OA
ATOM     13  H   UNL     1     -31.379  11.571 -12.223  0.00  0.00    +0.210 HD
ENDBRANCH   5  12
BRANCH   6  14
ATOM     14  C   UNL     1     -34.133   9.369 -13.327  0.00  0.00    +0.337 C 
ATOM     15  O   UNL     1     -33.190   8.668 -12.867  0.00  0.00    -0.248 OA
BRANCH  14  16
ATOM     16  O   UNL     1     -35.452   8.979 -13.121  0.00  0.00    -0.479 OA
ATOM     17  H   UNL     1     -35.956   8.457 -13.829  0.00  0.00    +0.295 HD
ENDBRANCH  14  16
ENDBRANCH   6  14
ENDBRANCH   1   2
BRANCH   1  21
ATOM     18  C   UNL     1     -37.161  10.175 -18.814  0.00  0.00    +0.280 C 
ATOM     19  C   UNL     1     -35.872   9.320 -18.710  0.00  0.00    +0.201 C 
ATOM     20  C   UNL     1     -34.906   9.898 -17.652  0.00  0.00    +0.180 C 
ATOM     21  C   UNL     1     -35.063  11.425 -17.562  0.00  0.00    +0.192 C 
ATOM     22  C   UNL     1     -36.538  11.750 -17.169  0.00  0.00    +0.260 C 
ATOM     23  O   UNL     1     -37.487  10.764 -17.566  0.00  0.00    -0.332 OA
BRANCH  18  24
ATOM     24  O   UNL     1     -38.232   9.382 -19.254  0.00  0.00    -0.365 OA
ATOM     25  H   UNL     1     -39.043   9.690 -18.772  0.00  0.00    +0.213 HD
ENDBRANCH  18  24
BRANCH  19  26
ATOM     26  O   UNL     1     -35.240   9.272 -19.966  0.00  0.00    -0.384 OA
ATOM     27  H   UNL     1     -35.914   9.558 -20.636  0.00  0.00    +0.210 HD
ENDBRANCH  19  26
BRANCH  20  28
ATOM     28  O   UNL     1     -33.580   9.559 -17.971  0.00  0.00    -0.386 OA
ATOM     29  H   UNL     1     -33.521   9.516 -18.961  0.00  0.00    +0.210 HD
ENDBRANCH  20  28
BRANCH  22  30
ATOM     30  C   UNL     1     -36.972  13.109 -17.649  0.00  0.00    +0.337 C 
ATOM     31  O   UNL     1     -38.196  13.412 -17.654  0.00  0.00    -0.248 OA
BRANCH  30  32
ATOM     32  O   UNL     1     -36.034  14.028 -18.110  0.00  0.00    -0.479 OA
ATOM     33  H   UNL     1     -36.311  14.798 -18.707  0.00  0.00    +0.295 HD
ENDBRANCH  30  32
ENDBRANCH  22  30
ENDBRANCH   1  21
TORSDOF 12
ENDMDL
MODEL 15
REMARK VINA RESULT:    -6.229      4.233      6.583
REMARK INTER + INTRA:         -10.431
REMARK INTER:                  -9.744
REMARK INTRA:                  -0.687
REMARK UNBOUND:                -1.289
REMARK  Name = BEM
REMARK  12 active torsions:
REMARK  status: ('A' for Active; 'I' for Inactive)
REMARK    1  A    between atoms: C_1  and  O_20
REMARK    2  A    between atoms: C_2  and  O_3
REMARK    3  A    between atoms: C_4  and  O_5
REMARK    4  A    between atoms: C_6  and  O_7
REMARK    5  A    between atoms: C_8  and  C_10
REMARK    6  A    between atoms: C_10  and  O_11
REMARK    7  A    between atoms: C_13  and  O_14
REMARK    8  A    between atoms: C_15  and  O_16
REMARK    9  A    between atoms: C_17  and  O_18
REMARK   10  A    between atoms: C_19  and  O_20
REMARK   11  A    between atoms: C_21  and  C_23
REMARK   12  A    between atoms: C_23  and  O_25
REMARK                            x       y       z     vdW  Elec       q    Type
REMARK                         _______ _______ _______ _____ _____    ______ ____
ROOT
ATOM      1  O   UNL     1     -34.883  10.116 -11.942  0.00  0.00    -0.340 OA
ENDROOT
BRANCH   1   2
ATOM      2  C   UNL     1     -34.932  10.325 -13.347  0.00  0.00    +0.283 C 
ATOM      3  C   UNL     1     -33.538  10.132 -13.987  0.00  0.00    +0.201 C 
ATOM      4  C   UNL     1     -32.580  11.243 -13.524  0.00  0.00    +0.179 C 
ATOM      5  C   UNL     1     -33.221  12.623 -13.740  0.00  0.00    +0.185 C 
ATOM      6  C   UNL     1     -34.624  12.644 -13.099  0.00  0.00    +0.260 C 
ATOM      7  O   UNL     1     -35.446  11.617 -13.633  0.00  0.00    -0.332 OA
BRANCH   3   8
ATOM      8  O   UNL     1     -33.648  10.159 -15.388  0.00  0.00    -0.384 OA
ATOM      9  H   UNL     1     -33.287  11.033 -15.688  0.00  0.00    +0.210 HD
ENDBRANCH   3   8
BRANCH   4  10
ATOM     10  O   UNL     1     -31.370  11.168 -14.234  0.00  0.00    -0.386 OA
ATOM     11  H   UNL     1     -30.685  10.837 -13.596  0.00  0.00    +0.210 HD
ENDBRANCH   4  10
BRANCH   5  12
ATOM     12  O   UNL     1     -32.421  13.616 -13.150  0.00  0.00    -0.386 OA
ATOM     13  H   UNL     1     -31.903  14.042 -13.882  0.00  0.00    +0.210 HD
ENDBRANCH   5  12
BRANCH   6  14
ATOM     14  C   UNL     1     -35.284  13.967 -13.358  0.00  0.00    +0.337 C 
ATOM     15  O   UNL     1     -34.899  14.692 -14.315  0.00  0.00    -0.248 OA
BRANCH  14  16
ATOM     16  O   UNL     1     -36.301  14.409 -12.517  0.00  0.00    -0.479 OA
ATOM     17  H   UNL     1     -37.271  14.367 -12.809  0.00  0.00    +0.295 HD
ENDBRANCH  14  16
ENDBRANCH   6  14
ENDBRANCH   1   2
BRANCH   1  21
ATOM     18  C   UNL     1     -35.387   6.424 -10.181  0.00  0.00    +0.280 C 
ATOM     19  C   UNL     1     -33.905   6.867 -10.299  0.00  0.00    +0.201 C 
ATOM     20  C   UNL     1     -33.800   8.350 -10.718  0.00  0.00    +0.180 C 
ATOM     21  C   UNL     1     -34.999   8.744 -11.595  0.00  0.00    +0.192 C 
ATOM     22  C   UNL     1     -36.309   8.514 -10.779  0.00  0.00    +0.260 C 
ATOM     23  O   UNL     1     -36.213   7.503  -9.778  0.00  0.00    -0.332 OA
BRANCH  18  24
ATOM     24  O   UNL     1     -35.504   5.372  -9.259  0.00  0.00    -0.365 OA
ATOM     25  H   UNL     1     -36.255   5.598  -8.650  0.00  0.00    +0.213 HD
ENDBRANCH  18  24
BRANCH  19  26
ATOM     26  O   UNL     1     -33.247   6.052 -11.238  0.00  0.00    -0.384 OA
ATOM     27  H   UNL     1     -33.780   6.091 -12.074  0.00  0.00    +0.210 HD
ENDBRANCH  19  26
BRANCH  20  28
ATOM     28  O   UNL     1     -32.594   8.574 -11.404  0.00  0.00    -0.386 OA
ATOM     29  H   UNL     1     -32.823   9.044 -12.249  0.00  0.00    +0.210 HD
ENDBRANCH  20  28
BRANCH  22  30
ATOM     30  C   UNL     1     -37.497   8.253 -11.665  0.00  0.00    +0.337 C 
ATOM     31  O   UNL     1     -37.414   8.464 -12.906  0.00  0.00    -0.248 OA
BRANCH  30  32
ATOM     32  O   UNL     1     -38.698   7.803 -11.123  0.00  0.00    -0.479 OA
ATOM     33  H   UNL     1     -39.297   8.428 -10.598  0.00  0.00    +0.295 HD
ENDBRANCH  30  32
ENDBRANCH  22  30
ENDBRANCH   1  21
TORSDOF 12
ENDMDL
MODEL 16
REMARK VINA RESULT:    -6.169      3.787      6.517
REMARK INTER + INTRA:         -10.342
REMARK INTER:                  -9.546
REMARK INTRA:                  -0.796
REMARK UNBOUND:                -1.289
REMARK  Name = BEM
REMARK  12 active torsions:
REMARK  status: ('A' for Active; 'I' for Inactive)
REMARK    1  A    between atoms: C_1  and  O_20
REMARK    2  A    between atoms: C_2  and  O_3
REMARK    3  A    between atoms: C_4  and  O_5
REMARK    4  A    between atoms: C_6  and  O_7
REMARK    5  A    between atoms: C_8  and  C_10
REMARK    6  A    between atoms: C_10  and  O_11
REMARK    7  A    between atoms: C_13  and  O_14
REMARK    8  A    between atoms: C_15  and  O_16
REMARK    9  A    between atoms: C_17  and  O_18
REMARK   10  A    between atoms: C_19  and  O_20
REMARK   11  A    between atoms: C_21  and  C_23
REMARK   12  A    between atoms: C_23  and  O_25
REMARK                            x       y       z     vdW  Elec       q    Type
REMARK                         _______ _______ _______ _____ _____    ______ ____
ROOT
ATOM      1  O   UNL     1     -34.829  10.039 -12.629  0.00  0.00    -0.340 OA
ENDROOT
BRANCH   1   2
ATOM      2  C   UNL     1     -33.640   9.903 -13.396  0.00  0.00    +0.283 C 
ATOM      3  C   UNL     1     -32.626  11.018 -13.052  0.00  0.00    +0.201 C 
ATOM      4  C   UNL     1     -33.160  12.385 -13.515  0.00  0.00    +0.179 C 
ATOM      5  C   UNL     1     -33.594  12.316 -14.988  0.00  0.00    +0.185 C 
ATOM      6  C   UNL     1     -34.553  11.124 -15.187  0.00  0.00    +0.260 C 
ATOM      7  O   UNL     1     -33.947   9.907 -14.782  0.00  0.00    -0.332 OA
BRANCH   3   8
ATOM      8  O   UNL     1     -31.397  10.756 -13.681  0.00  0.00    -0.384 OA
ATOM      9  H   UNL     1     -31.397   9.794 -13.923  0.00  0.00    +0.210 HD
ENDBRANCH   3   8
BRANCH   4  10
ATOM     10  O   UNL     1     -32.172  13.370 -13.360  0.00  0.00    -0.386 OA
ATOM     11  H   UNL     1     -32.646  14.240 -13.278  0.00  0.00    +0.210 HD
ENDBRANCH   4  10
BRANCH   5  12
ATOM     12  O   UNL     1     -34.245  13.508 -15.348  0.00  0.00    -0.386 OA
ATOM     13  H   UNL     1     -34.757  13.809 -14.552  0.00  0.00    +0.210 HD
ENDBRANCH   5  12
BRANCH   6  14
ATOM     14  C   UNL     1     -34.934  11.010 -16.634  0.00  0.00    +0.337 C 
ATOM     15  O   UNL     1     -35.991  10.407 -16.966  0.00  0.00    -0.248 OA
BRANCH  14  16
ATOM     16  O   UNL     1     -34.102  11.542 -17.613  0.00  0.00    -0.479 OA
ATOM     17  H   UNL     1     -33.098  11.578 -17.478  0.00  0.00    +0.295 HD
ENDBRANCH  14  16
ENDBRANCH   6  14
ENDBRANCH   1   2
BRANCH   1  21
ATOM     18  C   UNL     1     -34.906   9.183  -8.598  0.00  0.00    +0.280 C 
ATOM     19  C   UNL     1     -35.313  10.640  -8.939  0.00  0.00    +0.201 C 
ATOM     20  C   UNL     1     -35.518  10.819 -10.459  0.00  0.00    +0.180 C 
ATOM     21  C   UNL     1     -34.598   9.865 -11.239  0.00  0.00    +0.192 C 
ATOM     22  C   UNL     1     -34.937   8.399 -10.825  0.00  0.00    +0.260 C 
ATOM     23  O   UNL     1     -35.479   8.265  -9.513  0.00  0.00    -0.332 OA
BRANCH  18  24
ATOM     24  O   UNL     1     -35.311   8.862  -7.293  0.00  0.00    -0.365 OA
ATOM     25  H   UNL     1     -36.304   8.853  -7.288  0.00  0.00    +0.213 HD
ENDBRANCH  18  24
BRANCH  19  26
ATOM     26  O   UNL     1     -34.319  11.523  -8.478  0.00  0.00    -0.384 OA
ATOM     27  H   UNL     1     -34.463  11.632  -7.502  0.00  0.00    +0.210 HD
ENDBRANCH  19  26
BRANCH  20  28
ATOM     28  O   UNL     1     -35.268  12.152 -10.828  0.00  0.00    -0.386 OA
ATOM     29  H   UNL     1     -34.542  12.485 -10.238  0.00  0.00    +0.210 HD
ENDBRANCH  20  28
BRANCH  22  30
ATOM     30  C   UNL     1     -33.767   7.469 -11.000  0.00  0.00    +0.337 C 
ATOM     31  O   UNL     1     -33.718   6.702 -11.999  0.00  0.00    -0.248 OA
BRANCH  30  32
ATOM     32  O   UNL     1     -32.748   7.431 -10.053  0.00  0.00    -0.479 OA
ATOM     33  H   UNL     1     -31.876   7.922 -10.208  0.00  0.00    +0.295 HD
ENDBRANCH  30  32
ENDBRANCH  22  30
ENDBRANCH   1  21
TORSDOF 12
ENDMDL
MODEL 17
REMARK VINA RESULT:    -6.162      4.060      6.819
REMARK INTER + INTRA:         -10.332
REMARK INTER:                  -9.393
REMARK INTRA:                  -0.939
REMARK UNBOUND:                -1.289
REMARK  Name = BEM
REMARK  12 active torsions:
REMARK  status: ('A' for Active; 'I' for Inactive)
REMARK    1  A    between atoms: C_1  and  O_20
REMARK    2  A    between atoms: C_2  and  O_3
REMARK    3  A    between atoms: C_4  and  O_5
REMARK    4  A    between atoms: C_6  and  O_7
REMARK    5  A    between atoms: C_8  and  C_10
REMARK    6  A    between atoms: C_10  and  O_11
REMARK    7  A    between atoms: C_13  and  O_14
REMARK    8  A    between atoms: C_15  and  O_16
REMARK    9  A    between atoms: C_17  and  O_18
REMARK   10  A    between atoms: C_19  and  O_20
REMARK   11  A    between atoms: C_21  and  C_23
REMARK   12  A    between atoms: C_23  and  O_25
REMARK                            x       y       z     vdW  Elec       q    Type
REMARK                         _______ _______ _______ _____ _____    ______ ____
ROOT
ATOM      1  O   UNL     1     -33.810  10.385 -11.884  0.00  0.00    -0.340 OA
ENDROOT
BRANCH   1   2
ATOM      2  C   UNL     1     -34.722  11.107 -12.701  0.00  0.00    +0.283 C 
ATOM      3  C   UNL     1     -35.053  10.321 -13.992  0.00  0.00    +0.201 C 
ATOM      4  C   UNL     1     -33.809  10.226 -14.892  0.00  0.00    +0.179 C 
ATOM      5  C   UNL     1     -33.198  11.620 -15.106  0.00  0.00    +0.185 C 
ATOM      6  C   UNL     1     -32.980  12.301 -13.738  0.00  0.00    +0.260 C 
ATOM      7  O   UNL     1     -34.195  12.388 -13.011  0.00  0.00    -0.332 OA
BRANCH   3   8
ATOM      8  O   UNL     1     -36.091  10.963 -14.689  0.00  0.00    -0.384 OA
ATOM      9  H   UNL     1     -35.870  10.900 -15.654  0.00  0.00    +0.210 HD
ENDBRANCH   3   8
BRANCH   4  10
ATOM     10  O   UNL     1     -34.150   9.665 -16.133  0.00  0.00    -0.386 OA
ATOM     11  H   UNL     1     -33.606   8.840 -16.234  0.00  0.00    +0.210 HD
ENDBRANCH   4  10
BRANCH   5  12
ATOM     12  O   UNL     1     -31.967  11.502 -15.773  0.00  0.00    -0.386 OA
ATOM     13  H   UNL     1     -32.023  12.074 -16.583  0.00  0.00    +0.210 HD
ENDBRANCH   5  12
BRANCH   6  14
ATOM     14  C   UNL     1     -32.441  13.687 -13.938  0.00  0.00    +0.337 C 
ATOM     15  O   UNL     1     -33.108  14.688 -13.557  0.00  0.00    -0.248 OA
BRANCH  14  16
ATOM     16  O   UNL     1     -31.218  13.870 -14.576  0.00  0.00    -0.479 OA
ATOM     17  H   UNL     1     -31.075  13.548 -15.526  0.00  0.00    +0.295 HD
ENDBRANCH  14  16
ENDBRANCH   6  14
ENDBRANCH   1   2
BRANCH   1  21
ATOM     18  C   UNL     1     -35.109   7.935  -8.834  0.00  0.00    +0.280 C 
ATOM     19  C   UNL     1     -34.285   7.200  -9.923  0.00  0.00    +0.201 C 
ATOM     20  C   UNL     1     -33.612   8.206 -10.884  0.00  0.00    +0.180 C 
ATOM     21  C   UNL     1     -34.467   9.476 -11.013  0.00  0.00    +0.192 C 
ATOM     22  C   UNL     1     -34.624  10.116  -9.599  0.00  0.00    +0.260 C 
ATOM     23  O   UNL     1     -34.534   9.192  -8.518  0.00  0.00    -0.332 OA
BRANCH  18  24
ATOM     24  O   UNL     1     -35.188   7.148  -7.675  0.00  0.00    -0.365 OA
ATOM     25  H   UNL     1     -34.913   7.721  -6.912  0.00  0.00    +0.213 HD
ENDBRANCH  18  24
BRANCH  19  26
ATOM     26  O   UNL     1     -35.128   6.334 -10.642  0.00  0.00    -0.384 OA
ATOM     27  H   UNL     1     -36.056   6.658 -10.505  0.00  0.00    +0.210 HD
ENDBRANCH  19  26
BRANCH  20  28
ATOM     28  O   UNL     1     -33.417   7.613 -12.144  0.00  0.00    -0.386 OA
ATOM     29  H   UNL     1     -33.376   6.632 -12.000  0.00  0.00    +0.210 HD
ENDBRANCH  20  28
BRANCH  22  30
ATOM     30  C   UNL     1     -35.881  10.935  -9.477  0.00  0.00    +0.337 C 
ATOM     31  O   UNL     1     -36.962  10.502  -9.962  0.00  0.00    -0.248 OA
BRANCH  30  32
ATOM     32  O   UNL     1     -35.857  12.178  -8.853  0.00  0.00    -0.479 OA
ATOM     33  H   UNL     1     -35.687  13.023  -9.384  0.00  0.00    +0.295 HD
ENDBRANCH  30  32
ENDBRANCH  22  30
ENDBRANCH   1  21
TORSDOF 12
ENDMDL
MODEL 18
REMARK VINA RESULT:    -6.140      2.443      6.039
REMARK INTER + INTRA:         -10.301
REMARK INTER:                  -9.445
REMARK INTRA:                  -0.855
REMARK UNBOUND:                -1.289
REMARK  Name = BEM
REMARK  12 active torsions:
REMARK  status: ('A' for Active; 'I' for Inactive)
REMARK    1  A    between atoms: C_1  and  O_20
REMARK    2  A    between atoms: C_2  and  O_3
REMARK    3  A    between atoms: C_4  and  O_5
REMARK    4  A    between atoms: C_6  and  O_7
REMARK    5  A    between atoms: C_8  and  C_10
REMARK    6  A    between atoms: C_10  and  O_11
REMARK    7  A    between atoms: C_13  and  O_14
REMARK    8  A    between atoms: C_15  and  O_16
REMARK    9  A    between atoms: C_17  and  O_18
REMARK   10  A    between atoms: C_19  and  O_20
REMARK   11  A    between atoms: C_21  and  C_23
REMARK   12  A    between atoms: C_23  and  O_25
REMARK                            x       y       z     vdW  Elec       q    Type
REMARK                         _______ _______ _______ _____ _____    ______ ____
ROOT
ATOM      1  O   UNL     1     -35.634  13.040 -16.159  0.00  0.00    -0.340 OA
ENDROOT
BRANCH   1   2
ATOM      2  C   UNL     1     -36.389  13.973 -15.397  0.00  0.00    +0.283 C 
ATOM      3  C   UNL     1     -37.733  13.359 -14.939  0.00  0.00    +0.201 C 
ATOM      4  C   UNL     1     -38.646  13.110 -16.151  0.00  0.00    +0.179 C 
ATOM      5  C   UNL     1     -38.758  14.383 -17.004  0.00  0.00    +0.185 C 
ATOM      6  C   UNL     1     -37.345  14.909 -17.332  0.00  0.00    +0.260 C 
ATOM      7  O   UNL     1     -36.605  15.159 -16.148  0.00  0.00    -0.332 OA
BRANCH   3   8
ATOM      8  O   UNL     1     -38.372  14.228 -14.038  0.00  0.00    -0.384 OA
ATOM      9  H   UNL     1     -37.799  15.035 -13.961  0.00  0.00    +0.210 HD
ENDBRANCH   3   8
BRANCH   4  10
ATOM     10  O   UNL     1     -39.924  12.715 -15.724  0.00  0.00    -0.386 OA
ATOM     11  H   UNL     1     -40.198  11.957 -16.305  0.00  0.00    +0.210 HD
ENDBRANCH   4  10
BRANCH   5  12
ATOM     12  O   UNL     1     -39.441  14.097 -18.199  0.00  0.00    -0.386 OA
ATOM     13  H   UNL     1     -39.607  13.118 -18.208  0.00  0.00    +0.210 HD
ENDBRANCH   5  12
BRANCH   6  14
ATOM     14  C   UNL     1     -37.443  16.187 -18.113  0.00  0.00    +0.337 C 
ATOM     15  O   UNL     1     -36.398  16.807 -18.448  0.00  0.00    -0.248 OA
BRANCH  14  16
ATOM     16  O   UNL     1     -38.693  16.706 -18.438  0.00  0.00    -0.479 OA
ATOM     17  H   UNL     1     -39.367  16.151 -18.952  0.00  0.00    +0.295 HD
ENDBRANCH  14  16
ENDBRANCH   6  14
ENDBRANCH   1   2
BRANCH   1  21
ATOM     18  C   UNL     1     -32.708  11.821 -13.524  0.00  0.00    +0.280 C 
ATOM     19  C   UNL     1     -32.674  13.338 -13.844  0.00  0.00    +0.201 C 
ATOM     20  C   UNL     1     -33.939  13.772 -14.616  0.00  0.00    +0.180 C 
ATOM     21  C   UNL     1     -34.460  12.614 -15.482  0.00  0.00    +0.192 C 
ATOM     22  C   UNL     1     -34.794  11.408 -14.551  0.00  0.00    +0.260 C 
ATOM     23  O   UNL     1     -34.039  11.367 -13.343  0.00  0.00    -0.332 OA
BRANCH  18  24
ATOM     24  O   UNL     1     -31.958  11.554 -12.369  0.00  0.00    -0.365 OA
ATOM     25  H   UNL     1     -32.302  10.705 -11.985  0.00  0.00    +0.213 HD
ENDBRANCH  18  24
BRANCH  19  26
ATOM     26  O   UNL     1     -31.523  13.631 -14.597  0.00  0.00    -0.384 OA
ATOM     27  H   UNL     1     -31.052  14.368 -14.127  0.00  0.00    +0.210 HD
ENDBRANCH  19  26
BRANCH  20  28
ATOM     28  O   UNL     1     -33.657  14.895 -15.415  0.00  0.00    -0.386 OA
ATOM     29  H   UNL     1     -33.250  15.579 -14.821  0.00  0.00    +0.210 HD
ENDBRANCH  20  28
BRANCH  22  30
ATOM     30  C   UNL     1     -34.699  10.088 -15.266  0.00  0.00    +0.337 C 
ATOM     31  O   UNL     1     -34.611   9.019 -14.603  0.00  0.00    -0.248 OA
BRANCH  30  32
ATOM     32  O   UNL     1     -34.682  10.037 -16.657  0.00  0.00    -0.479 OA
ATOM     33  H   UNL     1     -35.365  10.547 -17.204  0.00  0.00    +0.295 HD
ENDBRANCH  30  32
ENDBRANCH  22  30
ENDBRANCH   1  21
TORSDOF 12
ENDMDL
MODEL 19
REMARK VINA RESULT:    -6.005      4.372      6.373
REMARK INTER + INTRA:         -10.102
REMARK INTER:                  -8.994
REMARK INTRA:                  -1.108
REMARK UNBOUND:                -1.289
REMARK  Name = BEM
REMARK  12 active torsions:
REMARK  status: ('A' for Active; 'I' for Inactive)
REMARK    1  A    between atoms: C_1  and  O_20
REMARK    2  A    between atoms: C_2  and  O_3
REMARK    3  A    between atoms: C_4  and  O_5
REMARK    4  A    between atoms: C_6  and  O_7
REMARK    5  A    between atoms: C_8  and  C_10
REMARK    6  A    between atoms: C_10  and  O_11
REMARK    7  A    between atoms: C_13  and  O_14
REMARK    8  A    between atoms: C_15  and  O_16
REMARK    9  A    between atoms: C_17  and  O_18
REMARK   10  A    between atoms: C_19  and  O_20
REMARK   11  A    between atoms: C_21  and  C_23
REMARK   12  A    between atoms: C_23  and  O_25
REMARK                            x       y       z     vdW  Elec       q    Type
REMARK                         _______ _______ _______ _____ _____    ______ ____
ROOT
ATOM      1  O   UNL     1     -35.486   9.515 -12.958  0.00  0.00    -0.340 OA
ENDROOT
BRANCH   1   2
ATOM      2  C   UNL     1     -34.746  10.627 -12.471  0.00  0.00    +0.283 C 
ATOM      3  C   UNL     1     -35.539  11.943 -12.648  0.00  0.00    +0.201 C 
ATOM      4  C   UNL     1     -35.689  12.277 -14.142  0.00  0.00    +0.179 C 
ATOM      5  C   UNL     1     -34.320  12.232 -14.838  0.00  0.00    +0.185 C 
ATOM      6  C   UNL     1     -33.627  10.890 -14.523  0.00  0.00    +0.260 C 
ATOM      7  O   UNL     1     -33.487  10.703 -13.123  0.00  0.00    -0.332 OA
BRANCH   3   8
ATOM      8  O   UNL     1     -34.873  12.994 -11.995  0.00  0.00    -0.384 OA
ATOM      9  H   UNL     1     -34.520  12.625 -11.143  0.00  0.00    +0.210 HD
ENDBRANCH   3   8
BRANCH   4  10
ATOM     10  O   UNL     1     -36.256  13.552 -14.300  0.00  0.00    -0.386 OA
ATOM     11  H   UNL     1     -35.659  14.191 -13.828  0.00  0.00    +0.210 HD
ENDBRANCH   4  10
BRANCH   5  12
ATOM     12  O   UNL     1     -34.488  12.358 -16.228  0.00  0.00    -0.386 OA
ATOM     13  H   UNL     1     -34.344  13.315 -16.450  0.00  0.00    +0.210 HD
ENDBRANCH   5  12
BRANCH   6  14
ATOM     14  C   UNL     1     -32.262  10.860 -15.147  0.00  0.00    +0.337 C 
ATOM     15  O   UNL     1     -32.139  10.800 -16.401  0.00  0.00    -0.248 OA
BRANCH  14  16
ATOM     16  O   UNL     1     -31.130  10.864 -14.338  0.00  0.00    -0.479 OA
ATOM     17  H   UNL     1     -30.601  10.014 -14.181  0.00  0.00    +0.295 HD
ENDBRANCH  14  16
ENDBRANCH   6  14
ENDBRANCH   1   2
BRANCH   1  21
ATOM     18  C   UNL     1     -35.746   7.150  -9.592  0.00  0.00    +0.280 C 
ATOM     19  C   UNL     1     -34.361   7.101 -10.289  0.00  0.00    +0.201 C 
ATOM     20  C   UNL     1     -34.246   8.195 -11.373  0.00  0.00    +0.180 C 
ATOM     21  C   UNL     1     -35.625   8.491 -11.984  0.00  0.00    +0.192 C 
ATOM     22  C   UNL     1     -36.580   8.968 -10.846  0.00  0.00    +0.260 C 
ATOM     23  O   UNL     1     -36.251   8.474  -9.550  0.00  0.00    -0.332 OA
BRANCH  18  24
ATOM     24  O   UNL     1     -35.647   6.643  -8.287  0.00  0.00    -0.365 OA
ATOM     25  H   UNL     1     -34.760   6.915  -7.932  0.00  0.00    +0.213 HD
ENDBRANCH  18  24
BRANCH  19  26
ATOM     26  O   UNL     1     -34.171   5.831 -10.862  0.00  0.00    -0.384 OA
ATOM     27  H   UNL     1     -35.015   5.326 -10.725  0.00  0.00    +0.210 HD
ENDBRANCH  19  26
BRANCH  20  28
ATOM     28  O   UNL     1     -33.342   7.793 -12.372  0.00  0.00    -0.386 OA
ATOM     29  H   UNL     1     -33.779   7.967 -13.246  0.00  0.00    +0.210 HD
ENDBRANCH  20  28
BRANCH  22  30
ATOM     30  C   UNL     1     -38.026   8.685 -11.156  0.00  0.00    +0.337 C 
ATOM     31  O   UNL     1     -38.890   8.762 -10.241  0.00  0.00    -0.248 OA
BRANCH  30  32
ATOM     32  O   UNL     1     -38.414   8.315 -12.440  0.00  0.00    -0.479 OA
ATOM     33  H   UNL     1     -37.757   7.881 -13.076  0.00  0.00    +0.295 HD
ENDBRANCH  30  32
ENDBRANCH  22  30
ENDBRANCH   1  21
TORSDOF 12
ENDMDL
MODEL 20
REMARK VINA RESULT:    -5.928      4.221      7.004
REMARK INTER + INTRA:          -9.990
REMARK INTER:                  -8.501
REMARK INTRA:                  -1.488
REMARK UNBOUND:                -1.289
REMARK  Name = BEM
REMARK  12 active torsions:
REMARK  status: ('A' for Active; 'I' for Inactive)
REMARK    1  A    between atoms: C_1  and  O_20
REMARK    2  A    between atoms: C_2  and  O_3
REMARK    3  A    between atoms: C_4  and  O_5
REMARK    4  A    between atoms: C_6  and  O_7
REMARK    5  A    between atoms: C_8  and  C_10
REMARK    6  A    between atoms: C_10  and  O_11
REMARK    7  A    between atoms: C_13  and  O_14
REMARK    8  A    between atoms: C_15  and  O_16
REMARK    9  A    between atoms: C_17  and  O_18
REMARK   10  A    between atoms: C_19  and  O_20
REMARK   11  A    between atoms: C_21  and  C_23
REMARK   12  A    between atoms: C_23  and  O_25
REMARK                            x       y       z     vdW  Elec       q    Type
REMARK                         _______ _______ _______ _____ _____    ______ ____
ROOT
ATOM      1  O   UNL     1     -33.662  10.208 -11.720  0.00  0.00    -0.340 OA
ENDROOT
BRANCH   1   2
ATOM      2  C   UNL     1     -34.281  10.394 -12.986  0.00  0.00    +0.283 C 
ATOM      3  C   UNL     1     -33.240  10.786 -14.062  0.00  0.00    +0.201 C 
ATOM      4  C   UNL     1     -32.670  12.184 -13.767  0.00  0.00    +0.179 C 
ATOM      5  C   UNL     1     -33.811  13.191 -13.554  0.00  0.00    +0.185 C 
ATOM      6  C   UNL     1     -34.795  12.638 -12.501  0.00  0.00    +0.260 C 
ATOM      7  O   UNL     1     -35.305  11.373 -12.893  0.00  0.00    -0.332 OA
BRANCH   3   8
ATOM      8  O   UNL     1     -33.841  10.781 -15.332  0.00  0.00    -0.384 OA
ATOM      9  H   UNL     1     -33.114  10.910 -15.995  0.00  0.00    +0.210 HD
ENDBRANCH   3   8
BRANCH   4  10
ATOM     10  O   UNL     1     -31.857  12.610 -14.829  0.00  0.00    -0.386 OA
ATOM     11  H   UNL     1     -32.398  12.520 -15.657  0.00  0.00    +0.210 HD
ENDBRANCH   4  10
BRANCH   5  12
ATOM     12  O   UNL     1     -33.286  14.416 -13.108  0.00  0.00    -0.386 OA
ATOM     13  H   UNL     1     -33.772  14.651 -12.274  0.00  0.00    +0.210 HD
ENDBRANCH   5  12
BRANCH   6  14
ATOM     14  C   UNL     1     -35.946  13.585 -12.331  0.00  0.00    +0.337 C 
ATOM     15  O   UNL     1     -36.146  14.500 -13.175  0.00  0.00    -0.248 OA
BRANCH  14  16
ATOM     16  O   UNL     1     -36.775  13.475 -11.218  0.00  0.00    -0.479 OA
ATOM     17  H   UNL     1     -37.334  14.260 -10.907  0.00  0.00    +0.295 HD
ENDBRANCH  14  16
ENDBRANCH   6  14
ENDBRANCH   1   2
BRANCH   1  21
ATOM     18  C   UNL     1     -35.253   7.888  -8.708  0.00  0.00    +0.280 C 
ATOM     19  C   UNL     1     -34.408   7.091  -9.735  0.00  0.00    +0.201 C 
ATOM     20  C   UNL     1     -33.632   8.042 -10.673  0.00  0.00    +0.180 C 
ATOM     21  C   UNL     1     -34.413   9.351 -10.873  0.00  0.00    +0.192 C 
ATOM     22  C   UNL     1     -34.615  10.026  -9.481  0.00  0.00    +0.260 C 
ATOM     23  O   UNL     1     -34.632   9.120  -8.380  0.00  0.00    -0.332 OA
BRANCH  18  24
ATOM     24  O   UNL     1     -35.437   7.129  -7.541  0.00  0.00    -0.365 OA
ATOM     25  H   UNL     1     -35.226   7.720  -6.771  0.00  0.00    +0.213 HD
ENDBRANCH  18  24
BRANCH  19  26
ATOM     26  O   UNL     1     -35.253   6.254 -10.486  0.00  0.00    -0.384 OA
ATOM     27  H   UNL     1     -34.723   5.934 -11.262  0.00  0.00    +0.210 HD
ENDBRANCH  19  26
BRANCH  20  28
ATOM     28  O   UNL     1     -33.399   7.416 -11.910  0.00  0.00    -0.386 OA
ATOM     29  H   UNL     1     -33.551   8.098 -12.615  0.00  0.00    +0.210 HD
ENDBRANCH  20  28
BRANCH  22  30
ATOM     30  C   UNL     1     -35.833  10.909  -9.444  0.00  0.00    +0.337 C 
ATOM     31  O   UNL     1     -36.859  10.592 -10.105  0.00  0.00    -0.248 OA
BRANCH  30  32
ATOM     32  O   UNL     1     -35.829  12.088  -8.704  0.00  0.00    -0.479 OA
ATOM     33  H   UNL     1     -36.381  12.885  -8.994  0.00  0.00    +0.295 HD
ENDBRANCH  30  32
ENDBRANCH  22  30
ENDBRANCH   1  21
TORSDOF 12
ENDMDL
