MODEL 10
REMARK VINA RESULT:    -6.727      3.889      8.167
REMARK INTER + INTRA:         -11.392
REMARK INTER:                  -9.843
REMARK INTRA:                  -1.549
REMARK UNBOUND:                -1.322
REMARK  Name = UDP
REMARK  11 active torsions:
REMARK  status: ('A' for Active; 'I' for Inactive)
REMARK    1  A    between atoms: N_1  and  C_9
REMARK    2  A    between atoms: C_10  and  O_11
REMARK    3  A    between atoms: C_12  and  O_15
REMARK    4  A    between atoms: C_13  and  C_16
REMARK    5  A    between atoms: C_16  and  O_17
REMARK    6  A    between atoms: O_17  and  P_18
REMARK    7  A    between atoms: P_18  and  O_20
REMARK    8  A    between atoms: P_18  and  O_21
REMARK    9  A    between atoms: O_21  and  P_22
REMARK   10  A    between atoms: P_22  and  O_24
REMARK   11  A    between atoms: P_22  and  O_25
REMARK                            x       y       z     vdW  Elec       q    Type
REMARK                         _______ _______ _______ _____ _____    ______ ____
ROOT
ATOM      1  C   UNL     1      58.263  21.843  -1.825  0.00  0.00    +0.255 C 
ATOM      2  C   UNL     1      57.730  20.624  -1.051  0.00  0.00    +0.195 C 
ATOM      3  C   UNL     1      57.647  19.536  -2.106  0.00  0.00    +0.178 C 
ATOM      4  C   UNL     1      58.546  20.074  -3.213  0.00  0.00    +0.178 C 
ATOM      5  O   UNL     1      58.483  21.480  -3.173  0.00  0.00    -0.346 OA
ENDROOT
BRANCH   1   6
ATOM      6  N   UNL     1      57.319  22.977  -1.746  0.00  0.00    -0.271 N 
ATOM      7  C   UNL     1      57.580  24.086  -0.974  0.00  0.00    +0.331 A 
ATOM      8  N   UNL     1      56.696  25.122  -0.939  0.00  0.00    -0.275 N 
ATOM      9  C   UNL     1      55.551  25.094  -1.669  0.00  0.00    +0.254 A 
ATOM     10  C   UNL     1      55.270  23.994  -2.472  0.00  0.00    +0.088 A 
ATOM     11  C   UNL     1      56.178  22.939  -2.501  0.00  0.00    +0.098 A 
ATOM     12  O   UNL     1      58.640  24.161  -0.295  0.00  0.00    -0.246 OA
ATOM     13  O   UNL     1      54.747  26.062  -1.623  0.00  0.00    -0.268 OA
ATOM     14  H   UNL     1      56.904  25.956  -0.344  0.00  0.00    +0.173 HD
ENDBRANCH   1   6
BRANCH   2  15
ATOM     15  O   UNL     1      58.585  20.279   0.016  0.00  0.00    -0.385 OA
ATOM     16  H   UNL     1      58.619  21.047   0.645  0.00  0.00    +0.210 HD
ENDBRANCH   2  15
BRANCH   3  17
ATOM     17  O   UNL     1      58.110  18.292  -1.645  0.00  0.00    -0.386 OA
ATOM     18  H   UNL     1      58.587  17.872  -2.408  0.00  0.00    +0.210 HD
ENDBRANCH   3  17
BRANCH   4  19
ATOM     19  C   UNL     1      58.119  19.569  -4.594  0.00  0.00    +0.206 C 
BRANCH  19  20
ATOM     20  O   UNL     1      58.439  18.203  -4.702  0.00  0.00    -0.284 OA
BRANCH  20  21
ATOM     21  P   UNL     1      59.360  17.983  -6.119  0.00  0.00    +0.483 P 
ATOM     22  O   UNL     1      58.429  17.537  -7.226  0.00  0.00    -0.227 OA
BRANCH  21  23
ATOM     23  O   UNL     1      60.079  19.455  -6.556  0.00  0.00    -0.302 OA
ATOM     24  H   UNL     1      61.019  19.225  -6.768  0.00  0.00    +0.222 HD
ENDBRANCH  21  23
BRANCH  21  25
ATOM     25  O   UNL     1      60.530  16.777  -5.841  0.00  0.00    -0.186 OA
BRANCH  25  26
ATOM     26  P   UNL     1      61.963  17.551  -5.345  0.00  0.00    +0.481 P 
ATOM     27  O   UNL     1      62.861  16.527  -4.688  0.00  0.00    -0.227 OA
BRANCH  26  28
ATOM     28  O   UNL     1      62.778  18.227  -6.666  0.00  0.00    -0.302 OA
ATOM     29  H   UNL     1      62.705  17.547  -7.384  0.00  0.00    +0.222 HD
ENDBRANCH  26  28
BRANCH  26  30
ATOM     30  O   UNL     1      61.604  18.762  -4.218  0.00  0.00    -0.302 OA
ATOM     31  H   UNL     1      62.354  18.736  -3.571  0.00  0.00    +0.222 HD
ENDBRANCH  26  30
ENDBRANCH  25  26
ENDBRANCH  21  25
ENDBRANCH  20  21
ENDBRANCH  19  20
ENDBRANCH   4  19
TORSDOF 11
ENDMDL
