MODEL 20
REMARK VINA RESULT:    -6.404      5.292      7.153
REMARK INTER + INTRA:         -10.909
REMARK INTER:                  -8.937
REMARK INTRA:                  -1.972
REMARK UNBOUND:                -1.322
REMARK  Name = UDP
REMARK  11 active torsions:
REMARK  status: ('A' for Active; 'I' for Inactive)
REMARK    1  A    between atoms: N_1  and  C_9
REMARK    2  A    between atoms: C_10  and  O_11
REMARK    3  A    between atoms: C_12  and  O_15
REMARK    4  A    between atoms: C_13  and  C_16
REMARK    5  A    between atoms: C_16  and  O_17
REMARK    6  A    between atoms: O_17  and  P_18
REMARK    7  A    between atoms: P_18  and  O_20
REMARK    8  A    between atoms: P_18  and  O_21
REMARK    9  A    between atoms: O_21  and  P_22
REMARK   10  A    between atoms: P_22  and  O_24
REMARK   11  A    between atoms: P_22  and  O_25
REMARK                            x       y       z     vdW  Elec       q    Type
REMARK                         _______ _______ _______ _____ _____    ______ ____
ROOT
ATOM      1  C   UNL     1      57.261  17.800  -5.683  0.00  0.00    +0.255 C 
ATOM      2  C   UNL     1      56.565  16.428  -5.727  0.00  0.00    +0.195 C 
ATOM      3  C   UNL     1      55.889  16.324  -4.372  0.00  0.00    +0.178 C 
ATOM      4  C   UNL     1      55.865  17.773  -3.899  0.00  0.00    +0.178 C 
ATOM      5  O   UNL     1      56.989  18.422  -4.444  0.00  0.00    -0.346 OA
ENDROOT
BRANCH   1   6
ATOM      6  N   UNL     1      58.719  17.663  -5.881  0.00  0.00    -0.271 N 
ATOM      7  C   UNL     1      59.336  18.072  -7.040  0.00  0.00    +0.331 A 
ATOM      8  N   UNL     1      60.686  17.949  -7.181  0.00  0.00    -0.275 N 
ATOM      9  C   UNL     1      61.452  17.436  -6.184  0.00  0.00    +0.254 A 
ATOM     10  C   UNL     1      60.858  17.031  -4.993  0.00  0.00    +0.088 A 
ATOM     11  C   UNL     1      59.478  17.159  -4.859  0.00  0.00    +0.098 A 
ATOM     12  O   UNL     1      58.665  18.571  -7.984  0.00  0.00    -0.246 OA
ATOM     13  O   UNL     1      62.698  17.330  -6.334  0.00  0.00    -0.268 OA
ATOM     14  H   UNL     1      61.141  18.258  -8.070  0.00  0.00    +0.173 HD
ENDBRANCH   1   6
BRANCH   2  15
ATOM     15  O   UNL     1      55.650  16.350  -6.796  0.00  0.00    -0.385 OA
ATOM     16  H   UNL     1      55.821  17.115  -7.406  0.00  0.00    +0.210 HD
ENDBRANCH   2  15
BRANCH   3  17
ATOM     17  O   UNL     1      54.587  15.802  -4.451  0.00  0.00    -0.386 OA
ATOM     18  H   UNL     1      54.172  16.209  -5.256  0.00  0.00    +0.210 HD
ENDBRANCH   3  17
BRANCH   4  19
ATOM     19  C   UNL     1      55.890  17.876  -2.372  0.00  0.00    +0.206 C 
BRANCH  19  20
ATOM     20  O   UNL     1      56.266  16.631  -1.833  0.00  0.00    -0.284 OA
BRANCH  20  21
ATOM     21  P   UNL     1      55.073  16.153  -0.714  0.00  0.00    +0.483 P 
ATOM     22  O   UNL     1      55.735  15.311   0.355  0.00  0.00    -0.227 OA
BRANCH  21  23
ATOM     23  O   UNL     1      54.393  17.530   0.004  0.00  0.00    -0.302 OA
ATOM     24  H   UNL     1      53.417  17.359   0.005  0.00  0.00    +0.222 HD
ENDBRANCH  21  23
BRANCH  21  25
ATOM     25  O   UNL     1      53.894  15.225  -1.520  0.00  0.00    -0.186 OA
BRANCH  25  26
ATOM     26  P   UNL     1      54.528  13.662  -1.745  0.00  0.00    +0.481 P 
ATOM     27  O   UNL     1      53.881  13.051  -2.967  0.00  0.00    -0.227 OA
BRANCH  26  28
ATOM     28  O   UNL     1      56.205  13.715  -1.981  0.00  0.00    -0.302 OA
ATOM     29  H   UNL     1      56.360  14.534  -2.518  0.00  0.00    +0.222 HD
ENDBRANCH  26  28
BRANCH  26  30
ATOM     30  O   UNL     1      54.174  12.696  -0.401  0.00  0.00    -0.302 OA
ATOM     31  H   UNL     1      53.289  13.012  -0.089  0.00  0.00    +0.222 HD
ENDBRANCH  26  30
ENDBRANCH  25  26
ENDBRANCH  21  25
ENDBRANCH  20  21
ENDBRANCH  19  20
ENDBRANCH   4  19
TORSDOF 11
ENDMDL
