MODEL 1
REMARK VINA RESULT:    -7.266      0.000      0.000
REMARK INTER + INTRA:         -12.199
REMARK INTER:                 -10.877
REMARK INTRA:                  -1.322
REMARK UNBOUND:                -1.322
REMARK  Name = UDP
REMARK  11 active torsions:
REMARK  status: ('A' for Active; 'I' for Inactive)
REMARK    1  A    between atoms: N_1  and  C_9
REMARK    2  A    between atoms: C_10  and  O_11
REMARK    3  A    between atoms: C_12  and  O_15
REMARK    4  A    between atoms: C_13  and  C_16
REMARK    5  A    between atoms: C_16  and  O_17
REMARK    6  A    between atoms: O_17  and  P_18
REMARK    7  A    between atoms: P_18  and  O_20
REMARK    8  A    between atoms: P_18  and  O_21
REMARK    9  A    between atoms: O_21  and  P_22
REMARK   10  A    between atoms: P_22  and  O_24
REMARK   11  A    between atoms: P_22  and  O_25
REMARK                            x       y       z     vdW  Elec       q    Type
REMARK                         _______ _______ _______ _____ _____    ______ ____
ROOT
ATOM      1  C   UNL     1      58.153  18.976  -3.668  0.00  0.00    +0.255 C 
ATOM      2  C   UNL     1      58.262  18.684  -2.161  0.00  0.00    +0.195 C 
ATOM      3  C   UNL     1      58.110  20.050  -1.517  0.00  0.00    +0.178 C 
ATOM      4  C   UNL     1      57.482  20.877  -2.632  0.00  0.00    +0.178 C 
ATOM      5  O   UNL     1      57.937  20.359  -3.860  0.00  0.00    -0.346 OA
ENDROOT
BRANCH   1   6
ATOM      6  N   UNL     1      59.371  18.542  -4.382  0.00  0.00    -0.271 N 
ATOM      7  C   UNL     1      59.370  17.451  -5.221  0.00  0.00    +0.331 A 
ATOM      8  N   UNL     1      60.507  17.089  -5.880  0.00  0.00    -0.275 N 
ATOM      9  C   UNL     1      61.657  17.798  -5.738  0.00  0.00    +0.254 A 
ATOM     10  C   UNL     1      61.682  18.916  -4.911  0.00  0.00    +0.088 A 
ATOM     11  C   UNL     1      60.516  19.277  -4.240  0.00  0.00    +0.098 A 
ATOM     12  O   UNL     1      58.320  16.775  -5.396  0.00  0.00    -0.246 OA
ATOM     13  O   UNL     1      62.697  17.447  -6.356  0.00  0.00    -0.268 OA
ATOM     14  H   UNL     1      60.494  16.254  -6.509  0.00  0.00    +0.173 HD
ENDBRANCH   1   6
BRANCH   2  15
ATOM     15  O   UNL     1      57.270  17.774  -1.740  0.00  0.00    -0.385 OA
ATOM     16  H   UNL     1      56.396  18.083  -2.097  0.00  0.00    +0.210 HD
ENDBRANCH   2  15
BRANCH   3  17
ATOM     17  O   UNL     1      57.282  20.029  -0.382  0.00  0.00    -0.386 OA
ATOM     18  H   UNL     1      57.378  19.124   0.016  0.00  0.00    +0.210 HD
ENDBRANCH   3  17
BRANCH   4  19
ATOM     19  C   UNL     1      57.847  22.359  -2.521  0.00  0.00    +0.206 C 
BRANCH  19  20
ATOM     20  O   UNL     1      58.297  22.625  -1.213  0.00  0.00    -0.284 OA
BRANCH  20  21
ATOM     21  P   UNL     1      57.814  24.205  -0.795  0.00  0.00    +0.483 P 
ATOM     22  O   UNL     1      58.980  24.895  -0.123  0.00  0.00    -0.227 OA
BRANCH  21  23
ATOM     23  O   UNL     1      57.397  25.055  -2.201  0.00  0.00    -0.302 OA
ATOM     24  H   UNL     1      58.262  25.260  -2.639  0.00  0.00    +0.222 HD
ENDBRANCH  21  23
BRANCH  21  25
ATOM     25  O   UNL     1      56.503  24.117   0.289  0.00  0.00    -0.186 OA
BRANCH  25  26
ATOM     26  P   UNL     1      56.104  25.705   0.750  0.00  0.00    +0.481 P 
ATOM     27  O   UNL     1      56.358  25.856   2.233  0.00  0.00    -0.227 OA
BRANCH  26  28
ATOM     28  O   UNL     1      57.048  26.836  -0.085  0.00  0.00    -0.302 OA
ATOM     29  H   UNL     1      56.431  27.244  -0.746  0.00  0.00    +0.222 HD
ENDBRANCH  26  28
BRANCH  26  30
ATOM     30  O   UNL     1      54.465  26.000   0.448  0.00  0.00    -0.302 OA
ATOM     31  H   UNL     1      54.077  26.208   1.335  0.00  0.00    +0.222 HD
ENDBRANCH  26  30
ENDBRANCH  25  26
ENDBRANCH  21  25
ENDBRANCH  20  21
ENDBRANCH  19  20
ENDBRANCH   4  19
TORSDOF 11
ENDMDL
