MODEL 2
REMARK VINA RESULT:    -7.200      5.940      7.723
REMARK INTER + INTRA:         -12.100
REMARK INTER:                 -10.288
REMARK INTRA:                  -1.812
REMARK UNBOUND:                -1.322
REMARK  Name = UDP
REMARK  11 active torsions:
REMARK  status: ('A' for Active; 'I' for Inactive)
REMARK    1  A    between atoms: N_1  and  C_9
REMARK    2  A    between atoms: C_10  and  O_11
REMARK    3  A    between atoms: C_12  and  O_15
REMARK    4  A    between atoms: C_13  and  C_16
REMARK    5  A    between atoms: C_16  and  O_17
REMARK    6  A    between atoms: O_17  and  P_18
REMARK    7  A    between atoms: P_18  and  O_20
REMARK    8  A    between atoms: P_18  and  O_21
REMARK    9  A    between atoms: O_21  and  P_22
REMARK   10  A    between atoms: P_22  and  O_24
REMARK   11  A    between atoms: P_22  and  O_25
REMARK                            x       y       z     vdW  Elec       q    Type
REMARK                         _______ _______ _______ _____ _____    ______ ____
ROOT
ATOM      1  C   UNL     1      56.691  24.766   0.753  0.00  0.00    +0.255 C 
ATOM      2  C   UNL     1      57.964  24.453  -0.054  0.00  0.00    +0.195 C 
ATOM      3  C   UNL     1      57.504  24.531  -1.498  0.00  0.00    +0.178 C 
ATOM      4  C   UNL     1      56.200  25.312  -1.391  0.00  0.00    +0.178 C 
ATOM      5  O   UNL     1      55.625  25.020  -0.139  0.00  0.00    -0.346 OA
ENDROOT
BRANCH   1   6
ATOM      6  N   UNL     1      56.348  23.651   1.659  0.00  0.00    -0.271 N 
ATOM      7  C   UNL     1      56.019  23.862   2.978  0.00  0.00    +0.331 A 
ATOM      8  N   UNL     1      55.689  22.813   3.781  0.00  0.00    -0.275 N 
ATOM      9  C   UNL     1      55.663  21.542   3.302  0.00  0.00    +0.254 A 
ATOM     10  C   UNL     1      55.973  21.300   1.968  0.00  0.00    +0.088 A 
ATOM     11  C   UNL     1      56.311  22.379   1.155  0.00  0.00    +0.098 A 
ATOM     12  O   UNL     1      56.012  25.028   3.460  0.00  0.00    -0.246 OA
ATOM     13  O   UNL     1      55.355  20.585   4.061  0.00  0.00    -0.268 OA
ATOM     14  H   UNL     1      55.446  22.987   4.784  0.00  0.00    +0.173 HD
ENDBRANCH   1   6
BRANCH   2  15
ATOM     15  O   UNL     1      58.995  25.369   0.237  0.00  0.00    -0.385 OA
ATOM     16  H   UNL     1      58.715  26.264  -0.091  0.00  0.00    +0.210 HD
ENDBRANCH   2  15
BRANCH   3  17
ATOM     17  O   UNL     1      58.421  25.198  -2.327  0.00  0.00    -0.386 OA
ATOM     18  H   UNL     1      57.894  25.573  -3.080  0.00  0.00    +0.210 HD
ENDBRANCH   3  17
BRANCH   4  19
ATOM     19  C   UNL     1      55.222  24.950  -2.513  0.00  0.00    +0.206 C 
BRANCH  19  20
ATOM     20  O   UNL     1      53.997  25.606  -2.283  0.00  0.00    -0.284 OA
BRANCH  20  21
ATOM     21  P   UNL     1      52.775  24.425  -2.166  0.00  0.00    +0.483 P 
ATOM     22  O   UNL     1      52.610  23.775  -3.522  0.00  0.00    -0.227 OA
BRANCH  21  23
ATOM     23  O   UNL     1      53.239  23.248  -1.037  0.00  0.00    -0.302 OA
ATOM     24  H   UNL     1      53.188  22.390  -1.530  0.00  0.00    +0.222 HD
ENDBRANCH  21  23
BRANCH  21  25
ATOM     25  O   UNL     1      51.315  25.178  -1.714  0.00  0.00    -0.186 OA
BRANCH  25  26
ATOM     26  P   UNL     1      51.615  26.089  -0.309  0.00  0.00    +0.481 P 
ATOM     27  O   UNL     1      51.860  27.526  -0.709  0.00  0.00    -0.227 OA
BRANCH  26  28
ATOM     28  O   UNL     1      50.291  26.032   0.746  0.00  0.00    -0.302 OA
ATOM     29  H   UNL     1      49.625  26.651   0.351  0.00  0.00    +0.222 HD
ENDBRANCH  26  28
BRANCH  26  30
ATOM     30  O   UNL     1      52.994  25.501   0.478  0.00  0.00    -0.302 OA
ATOM     31  H   UNL     1      52.644  24.942   1.216  0.00  0.00    +0.222 HD
ENDBRANCH  26  30
ENDBRANCH  25  26
ENDBRANCH  21  25
ENDBRANCH  20  21
ENDBRANCH  19  20
ENDBRANCH   4  19
TORSDOF 11
ENDMDL
