MODEL 19
REMARK VINA RESULT:    -6.444      5.922      7.898
REMARK INTER + INTRA:         -10.969
REMARK INTER:                  -9.278
REMARK INTRA:                  -1.690
REMARK UNBOUND:                -1.322
REMARK  Name = UDP
REMARK  11 active torsions:
REMARK  status: ('A' for Active; 'I' for Inactive)
REMARK    1  A    between atoms: N_1  and  C_9
REMARK    2  A    between atoms: C_10  and  O_11
REMARK    3  A    between atoms: C_12  and  O_15
REMARK    4  A    between atoms: C_13  and  C_16
REMARK    5  A    between atoms: C_16  and  O_17
REMARK    6  A    between atoms: O_17  and  P_18
REMARK    7  A    between atoms: P_18  and  O_20
REMARK    8  A    between atoms: P_18  and  O_21
REMARK    9  A    between atoms: O_21  and  P_22
REMARK   10  A    between atoms: P_22  and  O_24
REMARK   11  A    between atoms: P_22  and  O_25
REMARK                            x       y       z     vdW  Elec       q    Type
REMARK                         _______ _______ _______ _____ _____    ______ ____
ROOT
ATOM      1  C   UNL     1      56.662  23.820   0.797  0.00  0.00    +0.255 C 
ATOM      2  C   UNL     1      55.586  24.411   1.725  0.00  0.00    +0.195 C 
ATOM      3  C   UNL     1      55.017  23.197   2.436  0.00  0.00    +0.178 C 
ATOM      4  C   UNL     1      56.095  22.143   2.212  0.00  0.00    +0.178 C 
ATOM      5  O   UNL     1      56.717  22.420   0.980  0.00  0.00    -0.346 OA
ENDROOT
BRANCH   1   6
ATOM      6  N   UNL     1      56.381  24.143  -0.617  0.00  0.00    -0.271 N 
ATOM      7  C   UNL     1      56.898  25.266  -1.222  0.00  0.00    +0.331 A 
ATOM      8  N   UNL     1      56.635  25.524  -2.533  0.00  0.00    -0.275 N 
ATOM      9  C   UNL     1      55.872  24.679  -3.275  0.00  0.00    +0.254 A 
ATOM     10  C   UNL     1      55.351  23.528  -2.696  0.00  0.00    +0.088 A 
ATOM     11  C   UNL     1      55.625  23.273  -1.354  0.00  0.00    +0.098 A 
ATOM     12  O   UNL     1      57.626  26.067  -0.574  0.00  0.00    -0.246 OA
ATOM     13  O   UNL     1      55.640  24.936  -4.487  0.00  0.00    -0.268 OA
ATOM     14  H   UNL     1      57.030  26.383  -2.978  0.00  0.00    +0.173 HD
ENDBRANCH   1   6
BRANCH   2  15
ATOM     15  O   UNL     1      56.138  25.353   2.617  0.00  0.00    -0.385 OA
ATOM     16  H   UNL     1      55.391  25.860   3.031  0.00  0.00    +0.210 HD
ENDBRANCH   2  15
BRANCH   3  17
ATOM     17  O   UNL     1      54.809  23.417   3.808  0.00  0.00    -0.386 OA
ATOM     18  H   UNL     1      53.827  23.379   3.950  0.00  0.00    +0.210 HD
ENDBRANCH   3  17
BRANCH   4  19
ATOM     19  C   UNL     1      55.516  20.726   2.200  0.00  0.00    +0.206 C 
BRANCH  19  20
ATOM     20  O   UNL     1      54.349  20.700   2.988  0.00  0.00    -0.284 OA
BRANCH  20  21
ATOM     21  P   UNL     1      54.705  19.883   4.440  0.00  0.00    +0.483 P 
ATOM     22  O   UNL     1      53.460  19.878   5.299  0.00  0.00    -0.227 OA
BRANCH  21  23
ATOM     23  O   UNL     1      55.148  18.284   4.091  0.00  0.00    -0.302 OA
ATOM     24  H   UNL     1      54.527  18.000   3.373  0.00  0.00    +0.222 HD
ENDBRANCH  21  23
BRANCH  21  25
ATOM     25  O   UNL     1      55.953  20.710   5.252  0.00  0.00    -0.186 OA
BRANCH  25  26
ATOM     26  P   UNL     1      55.347  21.212   6.761  0.00  0.00    +0.481 P 
ATOM     27  O   UNL     1      56.460  21.890   7.527  0.00  0.00    -0.227 OA
BRANCH  26  28
ATOM     28  O   UNL     1      54.068  22.305   6.569  0.00  0.00    -0.302 OA
ATOM     29  H   UNL     1      54.352  23.117   7.062  0.00  0.00    +0.222 HD
ENDBRANCH  26  28
BRANCH  26  30
ATOM     30  O   UNL     1      54.819  19.869   7.647  0.00  0.00    -0.302 OA
ATOM     31  H   UNL     1      55.589  19.625   8.219  0.00  0.00    +0.222 HD
ENDBRANCH  26  30
ENDBRANCH  25  26
ENDBRANCH  21  25
ENDBRANCH  20  21
ENDBRANCH  19  20
ENDBRANCH   4  19
TORSDOF 11
ENDMDL
