MODEL 3
REMARK VINA RESULT:    -7.085      2.848      4.628
REMARK INTER + INTRA:         -11.928
REMARK INTER:                 -10.057
REMARK INTRA:                  -1.872
REMARK UNBOUND:                -1.322
REMARK  Name = UDP
REMARK  11 active torsions:
REMARK  status: ('A' for Active; 'I' for Inactive)
REMARK    1  A    between atoms: N_1  and  C_9
REMARK    2  A    between atoms: C_10  and  O_11
REMARK    3  A    between atoms: C_12  and  O_15
REMARK    4  A    between atoms: C_13  and  C_16
REMARK    5  A    between atoms: C_16  and  O_17
REMARK    6  A    between atoms: O_17  and  P_18
REMARK    7  A    between atoms: P_18  and  O_20
REMARK    8  A    between atoms: P_18  and  O_21
REMARK    9  A    between atoms: O_21  and  P_22
REMARK   10  A    between atoms: P_22  and  O_24
REMARK   11  A    between atoms: P_22  and  O_25
REMARK                            x       y       z     vdW  Elec       q    Type
REMARK                         _______ _______ _______ _____ _____    ______ ____
ROOT
ATOM      1  C   UNL     1      57.627  17.902  -7.183  0.00  0.00    +0.255 C 
ATOM      2  C   UNL     1      57.036  16.555  -6.728  0.00  0.00    +0.195 C 
ATOM      3  C   UNL     1      56.035  16.944  -5.656  0.00  0.00    +0.178 C 
ATOM      4  C   UNL     1      55.815  18.427  -5.927  0.00  0.00    +0.178 C 
ATOM      5  O   UNL     1      57.008  18.949  -6.463  0.00  0.00    -0.346 OA
ENDROOT
BRANCH   1   6
ATOM      6  N   UNL     1      59.090  17.935  -6.983  0.00  0.00    -0.271 N 
ATOM      7  C   UNL     1      59.937  18.500  -7.909  0.00  0.00    +0.331 A 
ATOM      8  N   UNL     1      61.280  18.531  -7.684  0.00  0.00    -0.275 N 
ATOM      9  C   UNL     1      61.813  18.022  -6.543  0.00  0.00    +0.254 A 
ATOM     10  C   UNL     1      60.980  17.461  -5.581  0.00  0.00    +0.088 A 
ATOM     11  C   UNL     1      59.608  17.433  -5.821  0.00  0.00    +0.098 A 
ATOM     12  O   UNL     1      59.482  19.001  -8.974  0.00  0.00    -0.246 OA
ATOM     13  O   UNL     1      63.058  18.061  -6.354  0.00  0.00    -0.268 OA
ATOM     14  H   UNL     1      61.912  18.959  -8.399  0.00  0.00    +0.173 HD
ENDBRANCH   1   6
BRANCH   2  15
ATOM     15  O   UNL     1      56.439  15.867  -7.804  0.00  0.00    -0.385 OA
ATOM     16  H   UNL     1      55.761  15.242  -7.432  0.00  0.00    +0.210 HD
ENDBRANCH   2  15
BRANCH   3  17
ATOM     17  O   UNL     1      54.828  16.232  -5.754  0.00  0.00    -0.386 OA
ATOM     18  H   UNL     1      54.317  16.651  -6.495  0.00  0.00    +0.210 HD
ENDBRANCH   3  17
BRANCH   4  19
ATOM     19  C   UNL     1      55.434  19.191  -4.656  0.00  0.00    +0.206 C 
BRANCH  19  20
ATOM     20  O   UNL     1      55.901  18.479  -3.535  0.00  0.00    -0.284 OA
BRANCH  20  21
ATOM     21  P   UNL     1      57.134  19.395  -2.798  0.00  0.00    +0.483 P 
ATOM     22  O   UNL     1      57.969  18.467  -1.943  0.00  0.00    -0.227 OA
BRANCH  21  23
ATOM     23  O   UNL     1      58.116  20.082  -3.997  0.00  0.00    -0.302 OA
ATOM     24  H   UNL     1      58.927  20.387  -3.517  0.00  0.00    +0.222 HD
ENDBRANCH  21  23
BRANCH  21  25
ATOM     25  O   UNL     1      56.426  20.592  -1.814  0.00  0.00    -0.186 OA
BRANCH  25  26
ATOM     26  P   UNL     1      57.597  21.794  -1.534  0.00  0.00    +0.481 P 
ATOM     27  O   UNL     1      57.782  22.592  -2.804  0.00  0.00    -0.227 OA
BRANCH  26  28
ATOM     28  O   UNL     1      57.111  22.840  -0.294  0.00  0.00    -0.302 OA
ATOM     29  H   UNL     1      56.176  22.576  -0.092  0.00  0.00    +0.222 HD
ENDBRANCH  26  28
BRANCH  26  30
ATOM     30  O   UNL     1      59.075  21.076  -1.124  0.00  0.00    -0.302 OA
ATOM     31  H   UNL     1      58.925  20.684  -0.227  0.00  0.00    +0.222 HD
ENDBRANCH  26  30
ENDBRANCH  25  26
ENDBRANCH  21  25
ENDBRANCH  20  21
ENDBRANCH  19  20
ENDBRANCH   4  19
TORSDOF 11
ENDMDL
