MODEL 14
REMARK VINA RESULT:    -6.602      4.638      8.287
REMARK INTER + INTRA:         -11.205
REMARK INTER:                  -9.353
REMARK INTRA:                  -1.851
REMARK UNBOUND:                -1.322
REMARK  Name = UDP
REMARK  11 active torsions:
REMARK  status: ('A' for Active; 'I' for Inactive)
REMARK    1  A    between atoms: N_1  and  C_9
REMARK    2  A    between atoms: C_10  and  O_11
REMARK    3  A    between atoms: C_12  and  O_15
REMARK    4  A    between atoms: C_13  and  C_16
REMARK    5  A    between atoms: C_16  and  O_17
REMARK    6  A    between atoms: O_17  and  P_18
REMARK    7  A    between atoms: P_18  and  O_20
REMARK    8  A    between atoms: P_18  and  O_21
REMARK    9  A    between atoms: O_21  and  P_22
REMARK   10  A    between atoms: P_22  and  O_24
REMARK   11  A    between atoms: P_22  and  O_25
REMARK                            x       y       z     vdW  Elec       q    Type
REMARK                         _______ _______ _______ _____ _____    ______ ____
ROOT
ATOM      1  C   UNL     1      55.580  24.870  -1.000  0.00  0.00    +0.255 C 
ATOM      2  C   UNL     1      56.667  25.352  -0.024  0.00  0.00    +0.195 C 
ATOM      3  C   UNL     1      57.815  24.385  -0.257  0.00  0.00    +0.178 C 
ATOM      4  C   UNL     1      57.468  23.777  -1.610  0.00  0.00    +0.178 C 
ATOM      5  O   UNL     1      56.065  23.761  -1.729  0.00  0.00    -0.346 OA
ENDROOT
BRANCH   1   6
ATOM      6  N   UNL     1      54.341  24.508  -0.279  0.00  0.00    -0.271 N 
ATOM      7  C   UNL     1      53.229  25.318  -0.296  0.00  0.00    +0.331 A 
ATOM      8  N   UNL     1      52.097  24.945   0.364  0.00  0.00    -0.275 N 
ATOM      9  C   UNL     1      52.033  23.767   1.037  0.00  0.00    +0.254 A 
ATOM     10  C   UNL     1      53.135  22.920   1.057  0.00  0.00    +0.088 A 
ATOM     11  C   UNL     1      54.289  23.311   0.381  0.00  0.00    +0.098 A 
ATOM     12  O   UNL     1      53.239  26.412  -0.925  0.00  0.00    -0.246 OA
ATOM     13  O   UNL     1      50.976  23.440   1.641  0.00  0.00    -0.268 OA
ATOM     14  H   UNL     1      51.261  25.573   0.347  0.00  0.00    +0.173 HD
ENDBRANCH   1   6
BRANCH   2  15
ATOM     15  O   UNL     1      57.028  26.691  -0.276  0.00  0.00    -0.385 OA
ATOM     16  H   UNL     1      57.770  26.932   0.338  0.00  0.00    +0.210 HD
ENDBRANCH   2  15
BRANCH   3  17
ATOM     17  O   UNL     1      59.065  25.024  -0.299  0.00  0.00    -0.386 OA
ATOM     18  H   UNL     1      59.450  24.943   0.613  0.00  0.00    +0.210 HD
ENDBRANCH   3  17
BRANCH   4  19
ATOM     19  C   UNL     1      58.022  22.357  -1.758  0.00  0.00    +0.206 C 
BRANCH  19  20
ATOM     20  O   UNL     1      58.560  21.944  -0.524  0.00  0.00    -0.284 OA
BRANCH  20  21
ATOM     21  P   UNL     1      57.962  20.386  -0.178  0.00  0.00    +0.483 P 
ATOM     22  O   UNL     1      58.274  19.486  -1.353  0.00  0.00    -0.227 OA
BRANCH  21  23
ATOM     23  O   UNL     1      58.734  19.783   1.206  0.00  0.00    -0.302 OA
ATOM     24  H   UNL     1      58.874  20.576   1.784  0.00  0.00    +0.222 HD
ENDBRANCH  21  23
BRANCH  21  25
ATOM     25  O   UNL     1      56.275  20.473   0.039  0.00  0.00    -0.186 OA
BRANCH  25  26
ATOM     26  P   UNL     1      55.807  19.151   1.003  0.00  0.00    +0.481 P 
ATOM     27  O   UNL     1      54.313  18.964   0.872  0.00  0.00    -0.227 OA
BRANCH  26  28
ATOM     28  O   UNL     1      56.583  17.731   0.505  0.00  0.00    -0.302 OA
ATOM     29  H   UNL     1      57.543  17.973   0.449  0.00  0.00    +0.222 HD
ENDBRANCH  26  28
BRANCH  26  30
ATOM     30  O   UNL     1      56.175  19.461   2.626  0.00  0.00    -0.302 OA
ATOM     31  H   UNL     1      56.932  18.857   2.833  0.00  0.00    +0.222 HD
ENDBRANCH  26  30
ENDBRANCH  25  26
ENDBRANCH  21  25
ENDBRANCH  20  21
ENDBRANCH  19  20
ENDBRANCH   4  19
TORSDOF 11
ENDMDL
