MODEL 18
REMARK VINA RESULT:    -6.446      3.886      8.393
REMARK INTER + INTRA:         -10.972
REMARK INTER:                  -9.552
REMARK INTRA:                  -1.420
REMARK UNBOUND:                -1.322
REMARK  Name = UDP
REMARK  11 active torsions:
REMARK  status: ('A' for Active; 'I' for Inactive)
REMARK    1  A    between atoms: N_1  and  C_9
REMARK    2  A    between atoms: C_10  and  O_11
REMARK    3  A    between atoms: C_12  and  O_15
REMARK    4  A    between atoms: C_13  and  C_16
REMARK    5  A    between atoms: C_16  and  O_17
REMARK    6  A    between atoms: O_17  and  P_18
REMARK    7  A    between atoms: P_18  and  O_20
REMARK    8  A    between atoms: P_18  and  O_21
REMARK    9  A    between atoms: O_21  and  P_22
REMARK   10  A    between atoms: P_22  and  O_24
REMARK   11  A    between atoms: P_22  and  O_25
REMARK                            x       y       z     vdW  Elec       q    Type
REMARK                         _______ _______ _______ _____ _____    ______ ____
ROOT
ATOM      1  C   UNL     1      57.973  21.933  -0.289  0.00  0.00    +0.255 C 
ATOM      2  C   UNL     1      57.242  20.586  -0.148  0.00  0.00    +0.195 C 
ATOM      3  C   UNL     1      57.461  19.914  -1.491  0.00  0.00    +0.178 C 
ATOM      4  C   UNL     1      58.638  20.693  -2.066  0.00  0.00    +0.178 C 
ATOM      5  O   UNL     1      58.567  22.009  -1.569  0.00  0.00    -0.346 OA
ENDROOT
BRANCH   1   6
ATOM      6  N   UNL     1      57.046  23.065  -0.084  0.00  0.00    -0.271 N 
ATOM      7  C   UNL     1      57.498  24.357   0.052  0.00  0.00    +0.331 A 
ATOM      8  N   UNL     1      56.614  25.380   0.220  0.00  0.00    -0.275 N 
ATOM      9  C   UNL     1      55.274  25.154   0.243  0.00  0.00    +0.254 A 
ATOM     10  C   UNL     1      54.788  23.861   0.090  0.00  0.00    +0.088 A 
ATOM     11  C   UNL     1      55.699  22.821  -0.080  0.00  0.00    +0.098 A 
ATOM     12  O   UNL     1      58.732  24.614   0.018  0.00  0.00    -0.246 OA
ATOM     13  O   UNL     1      54.474  26.114   0.400  0.00  0.00    -0.268 OA
ATOM     14  H   UNL     1      56.971  26.357   0.328  0.00  0.00    +0.173 HD
ENDBRANCH   1   6
BRANCH   2  15
ATOM     15  O   UNL     1      57.758  19.831   0.926  0.00  0.00    -0.385 OA
ATOM     16  H   UNL     1      57.333  20.154   1.763  0.00  0.00    +0.210 HD
ENDBRANCH   2  15
BRANCH   3  17
ATOM     17  O   UNL     1      57.773  18.549  -1.374  0.00  0.00    -0.386 OA
ATOM     18  H   UNL     1      56.920  18.086  -1.165  0.00  0.00    +0.210 HD
ENDBRANCH   3  17
BRANCH   4  19
ATOM     19  C   UNL     1      58.621  20.710  -3.596  0.00  0.00    +0.206 C 
BRANCH  19  20
ATOM     20  O   UNL     1      57.451  20.069  -4.050  0.00  0.00    -0.284 OA
BRANCH  20  21
ATOM     21  P   UNL     1      57.910  18.781  -5.066  0.00  0.00    +0.483 P 
ATOM     22  O   UNL     1      58.765  19.339  -6.183  0.00  0.00    -0.227 OA
BRANCH  21  23
ATOM     23  O   UNL     1      58.818  17.659  -4.176  0.00  0.00    -0.302 OA
ATOM     24  H   UNL     1      58.256  17.446  -3.389  0.00  0.00    +0.222 HD
ENDBRANCH  21  23
BRANCH  21  25
ATOM     25  O   UNL     1      56.511  18.066  -5.724  0.00  0.00    -0.186 OA
BRANCH  25  26
ATOM     26  P   UNL     1      57.004  16.995  -6.951  0.00  0.00    +0.481 P 
ATOM     27  O   UNL     1      58.094  16.103  -6.403  0.00  0.00    -0.227 OA
BRANCH  26  28
ATOM     28  O   UNL     1      55.713  16.027  -7.468  0.00  0.00    -0.302 OA
ATOM     29  H   UNL     1      55.175  16.616  -8.056  0.00  0.00    +0.222 HD
ENDBRANCH  26  28
BRANCH  26  30
ATOM     30  O   UNL     1      57.622  17.866  -8.264  0.00  0.00    -0.302 OA
ATOM     31  H   UNL     1      58.212  18.549  -7.859  0.00  0.00    +0.222 HD
ENDBRANCH  26  30
ENDBRANCH  25  26
ENDBRANCH  21  25
ENDBRANCH  20  21
ENDBRANCH  19  20
ENDBRANCH   4  19
TORSDOF 11
ENDMDL
