MODEL 7
REMARK VINA RESULT:    -6.910      5.593      7.156
REMARK INTER + INTRA:         -11.665
REMARK INTER:                  -9.892
REMARK INTRA:                  -1.774
REMARK UNBOUND:                -1.322
REMARK  Name = UDP
REMARK  11 active torsions:
REMARK  status: ('A' for Active; 'I' for Inactive)
REMARK    1  A    between atoms: N_1  and  C_9
REMARK    2  A    between atoms: C_10  and  O_11
REMARK    3  A    between atoms: C_12  and  O_15
REMARK    4  A    between atoms: C_13  and  C_16
REMARK    5  A    between atoms: C_16  and  O_17
REMARK    6  A    between atoms: O_17  and  P_18
REMARK    7  A    between atoms: P_18  and  O_20
REMARK    8  A    between atoms: P_18  and  O_21
REMARK    9  A    between atoms: O_21  and  P_22
REMARK   10  A    between atoms: P_22  and  O_24
REMARK   11  A    between atoms: P_22  and  O_25
REMARK                            x       y       z     vdW  Elec       q    Type
REMARK                         _______ _______ _______ _____ _____    ______ ____
ROOT
ATOM      1  C   UNL     1      57.713  17.838  -7.634  0.00  0.00    +0.255 C 
ATOM      2  C   UNL     1      56.994  16.642  -6.985  0.00  0.00    +0.195 C 
ATOM      3  C   UNL     1      55.862  17.283  -6.203  0.00  0.00    +0.178 C 
ATOM      4  C   UNL     1      55.760  18.665  -6.837  0.00  0.00    +0.178 C 
ATOM      5  O   UNL     1      57.046  19.032  -7.280  0.00  0.00    -0.346 OA
ENDROOT
BRANCH   1   6
ATOM      6  N   UNL     1      59.129  17.897  -7.217  0.00  0.00    -0.271 N 
ATOM      7  C   UNL     1      60.116  18.355  -8.060  0.00  0.00    +0.331 A 
ATOM      8  N   UNL     1      61.409  18.415  -7.636  0.00  0.00    -0.275 N 
ATOM      9  C   UNL     1      61.753  18.041  -6.375  0.00  0.00    +0.254 A 
ATOM     10  C   UNL     1      60.774  17.593  -5.496  0.00  0.00    +0.088 A 
ATOM     11  C   UNL     1      59.455  17.533  -5.939  0.00  0.00    +0.098 A 
ATOM     12  O   UNL     1      59.838  18.729  -9.232  0.00  0.00    -0.246 OA
ATOM     13  O   UNL     1      62.955  18.104  -6.003  0.00  0.00    -0.268 OA
ATOM     14  H   UNL     1      62.150  18.759  -8.289  0.00  0.00    +0.173 HD
ENDBRANCH   1   6
BRANCH   2  15
ATOM     15  O   UNL     1      56.533  15.730  -7.956  0.00  0.00    -0.385 OA
ATOM     16  H   UNL     1      57.043  15.887  -8.794  0.00  0.00    +0.210 HD
ENDBRANCH   2  15
BRANCH   3  17
ATOM     17  O   UNL     1      54.650  16.584  -6.327  0.00  0.00    -0.386 OA
ATOM     18  H   UNL     1      53.984  17.084  -5.786  0.00  0.00    +0.210 HD
ENDBRANCH   3  17
BRANCH   4  19
ATOM     19  C   UNL     1      55.229  19.709  -5.851  0.00  0.00    +0.206 C 
BRANCH  19  20
ATOM     20  O   UNL     1      54.276  20.515  -6.505  0.00  0.00    -0.284 OA
BRANCH  20  21
ATOM     21  P   UNL     1      52.752  20.208  -5.808  0.00  0.00    +0.483 P 
ATOM     22  O   UNL     1      52.770  18.814  -5.220  0.00  0.00    -0.227 OA
BRANCH  21  23
ATOM     23  O   UNL     1      52.464  21.331  -4.571  0.00  0.00    -0.302 OA
ATOM     24  H   UNL     1      53.079  21.067  -3.841  0.00  0.00    +0.222 HD
ENDBRANCH  21  23
BRANCH  21  25
ATOM     25  O   UNL     1      51.558  20.298  -7.020  0.00  0.00    -0.186 OA
BRANCH  25  26
ATOM     26  P   UNL     1      52.037  19.281  -8.297  0.00  0.00    +0.481 P 
ATOM     27  O   UNL     1      50.867  19.104  -9.238  0.00  0.00    -0.227 OA
BRANCH  26  28
ATOM     28  O   UNL     1      53.334  19.951  -9.155  0.00  0.00    -0.302 OA
ATOM     29  H   UNL     1      54.125  19.427  -8.869  0.00  0.00    +0.222 HD
ENDBRANCH  26  28
BRANCH  26  30
ATOM     30  O   UNL     1      52.481  17.763  -7.691  0.00  0.00    -0.302 OA
ATOM     31  H   UNL     1      52.897  17.297  -8.458  0.00  0.00    +0.222 HD
ENDBRANCH  26  30
ENDBRANCH  25  26
ENDBRANCH  21  25
ENDBRANCH  20  21
ENDBRANCH  19  20
ENDBRANCH   4  19
TORSDOF 11
ENDMDL
