MODEL 15
REMARK VINA RESULT:    -6.597      5.934      8.199
REMARK INTER + INTRA:         -11.197
REMARK INTER:                  -9.160
REMARK INTRA:                  -2.037
REMARK UNBOUND:                -1.322
REMARK  Name = UDP
REMARK  11 active torsions:
REMARK  status: ('A' for Active; 'I' for Inactive)
REMARK    1  A    between atoms: N_1  and  C_9
REMARK    2  A    between atoms: C_10  and  O_11
REMARK    3  A    between atoms: C_12  and  O_15
REMARK    4  A    between atoms: C_13  and  C_16
REMARK    5  A    between atoms: C_16  and  O_17
REMARK    6  A    between atoms: O_17  and  P_18
REMARK    7  A    between atoms: P_18  and  O_20
REMARK    8  A    between atoms: P_18  and  O_21
REMARK    9  A    between atoms: O_21  and  P_22
REMARK   10  A    between atoms: P_22  and  O_24
REMARK   11  A    between atoms: P_22  and  O_25
REMARK                            x       y       z     vdW  Elec       q    Type
REMARK                         _______ _______ _______ _____ _____    ______ ____
ROOT
ATOM      1  C   UNL     1      55.772  14.823  -2.769  0.00  0.00    +0.255 C 
ATOM      2  C   UNL     1      54.843  15.933  -3.292  0.00  0.00    +0.195 C 
ATOM      3  C   UNL     1      55.786  17.089  -3.574  0.00  0.00    +0.178 C 
ATOM      4  C   UNL     1      57.145  16.404  -3.637  0.00  0.00    +0.178 C 
ATOM      5  O   UNL     1      57.106  15.290  -2.776  0.00  0.00    -0.346 OA
ENDROOT
BRANCH   1   6
ATOM      6  N   UNL     1      55.383  14.401  -1.408  0.00  0.00    -0.271 N 
ATOM      7  C   UNL     1      55.614  13.124  -0.950  0.00  0.00    +0.331 A 
ATOM      8  N   UNL     1      55.260  12.774   0.318  0.00  0.00    -0.275 N 
ATOM      9  C   UNL     1      54.687  13.673   1.161  0.00  0.00    +0.254 A 
ATOM     10  C   UNL     1      54.458  14.975   0.731  0.00  0.00    +0.088 A 
ATOM     11  C   UNL     1      54.822  15.323  -0.567  0.00  0.00    +0.098 A 
ATOM     12  O   UNL     1      56.161  12.264  -1.693  0.00  0.00    -0.246 OA
ATOM     13  O   UNL     1      54.366  13.329   2.330  0.00  0.00    -0.268 OA
ATOM     14  H   UNL     1      55.436  11.799   0.651  0.00  0.00    +0.173 HD
ENDBRANCH   1   6
BRANCH   2  15
ATOM     15  O   UNL     1      54.139  15.516  -4.440  0.00  0.00    -0.385 OA
ATOM     16  H   UNL     1      54.309  16.176  -5.163  0.00  0.00    +0.210 HD
ENDBRANCH   2  15
BRANCH   3  17
ATOM     17  O   UNL     1      55.498  17.745  -4.782  0.00  0.00    -0.386 OA
ATOM     18  H   UNL     1      55.248  17.036  -5.431  0.00  0.00    +0.210 HD
ENDBRANCH   3  17
BRANCH   4  19
ATOM     19  C   UNL     1      58.280  17.344  -3.225  0.00  0.00    +0.206 C 
BRANCH  19  20
ATOM     20  O   UNL     1      58.412  18.357  -4.195  0.00  0.00    -0.284 OA
BRANCH  20  21
ATOM     21  P   UNL     1      59.875  18.105  -5.032  0.00  0.00    +0.483 P 
ATOM     22  O   UNL     1      60.997  18.712  -4.219  0.00  0.00    -0.227 OA
BRANCH  21  23
ATOM     23  O   UNL     1      60.147  16.440  -5.199  0.00  0.00    -0.302 OA
ATOM     24  H   UNL     1      60.154  16.090  -4.273  0.00  0.00    +0.222 HD
ENDBRANCH  21  23
BRANCH  21  25
ATOM     25  O   UNL     1      59.789  18.876  -6.548  0.00  0.00    -0.186 OA
BRANCH  25  26
ATOM     26  P   UNL     1      58.209  18.671  -7.145  0.00  0.00    +0.481 P 
ATOM     27  O   UNL     1      58.207  18.987  -8.623  0.00  0.00    -0.227 OA
BRANCH  26  28
ATOM     28  O   UNL     1      57.677  17.078  -6.924  0.00  0.00    -0.302 OA
ATOM     29  H   UNL     1      56.906  17.152  -6.305  0.00  0.00    +0.222 HD
ENDBRANCH  26  28
BRANCH  26  30
ATOM     30  O   UNL     1      57.152  19.736  -6.361  0.00  0.00    -0.302 OA
ATOM     31  H   UNL     1      57.201  19.482  -5.405  0.00  0.00    +0.222 HD
ENDBRANCH  26  30
ENDBRANCH  25  26
ENDBRANCH  21  25
ENDBRANCH  20  21
ENDBRANCH  19  20
ENDBRANCH   4  19
TORSDOF 11
ENDMDL
