MODEL 8
REMARK VINA RESULT:    -6.863      5.174      7.382
REMARK INTER + INTRA:         -11.596
REMARK INTER:                  -9.887
REMARK INTRA:                  -1.709
REMARK UNBOUND:                -1.322
REMARK  Name = UDP
REMARK  11 active torsions:
REMARK  status: ('A' for Active; 'I' for Inactive)
REMARK    1  A    between atoms: N_1  and  C_9
REMARK    2  A    between atoms: C_10  and  O_11
REMARK    3  A    between atoms: C_12  and  O_15
REMARK    4  A    between atoms: C_13  and  C_16
REMARK    5  A    between atoms: C_16  and  O_17
REMARK    6  A    between atoms: O_17  and  P_18
REMARK    7  A    between atoms: P_18  and  O_20
REMARK    8  A    between atoms: P_18  and  O_21
REMARK    9  A    between atoms: O_21  and  P_22
REMARK   10  A    between atoms: P_22  and  O_24
REMARK   11  A    between atoms: P_22  and  O_25
REMARK                            x       y       z     vdW  Elec       q    Type
REMARK                         _______ _______ _______ _____ _____    ______ ____
ROOT
ATOM      1  C   UNL     1      56.293  17.387  -6.929  0.00  0.00    +0.255 C 
ATOM      2  C   UNL     1      55.875  18.863  -7.053  0.00  0.00    +0.195 C 
ATOM      3  C   UNL     1      57.081  19.526  -7.693  0.00  0.00    +0.178 C 
ATOM      4  C   UNL     1      57.840  18.343  -8.281  0.00  0.00    +0.178 C 
ATOM      5  O   UNL     1      57.590  17.223  -7.465  0.00  0.00    -0.346 OA
ENDROOT
BRANCH   1   6
ATOM      6  N   UNL     1      56.258  16.941  -5.521  0.00  0.00    -0.271 N 
ATOM      7  C   UNL     1      55.074  16.685  -4.869  0.00  0.00    +0.331 A 
ATOM      8  N   UNL     1      55.079  16.256  -3.576  0.00  0.00    -0.275 N 
ATOM      9  C   UNL     1      56.244  16.059  -2.906  0.00  0.00    +0.254 A 
ATOM     10  C   UNL     1      57.457  16.293  -3.545  0.00  0.00    +0.088 A 
ATOM     11  C   UNL     1      57.442  16.732  -4.866  0.00  0.00    +0.098 A 
ATOM     12  O   UNL     1      53.969  16.837  -5.460  0.00  0.00    -0.246 OA
ATOM     13  O   UNL     1      56.228  15.663  -1.711  0.00  0.00    -0.268 OA
ATOM     14  H   UNL     1      54.171  16.071  -3.091  0.00  0.00    +0.173 HD
ENDBRANCH   1   6
BRANCH   2  15
ATOM     15  O   UNL     1      54.705  19.003  -7.827  0.00  0.00    -0.385 OA
ATOM     16  H   UNL     1      54.878  19.685  -8.528  0.00  0.00    +0.210 HD
ENDBRANCH   2  15
BRANCH   3  17
ATOM     17  O   UNL     1      56.729  20.445  -8.696  0.00  0.00    -0.386 OA
ATOM     18  H   UNL     1      55.818  20.770  -8.469  0.00  0.00    +0.210 HD
ENDBRANCH   3  17
BRANCH   4  19
ATOM     19  C   UNL     1      59.345  18.610  -8.358  0.00  0.00    +0.206 C 
BRANCH  19  20
ATOM     20  O   UNL     1      60.037  17.474  -7.893  0.00  0.00    -0.284 OA
BRANCH  20  21
ATOM     21  P   UNL     1      60.931  17.923  -6.514  0.00  0.00    +0.483 P 
ATOM     22  O   UNL     1      61.202  16.678  -5.698  0.00  0.00    -0.227 OA
BRANCH  21  23
ATOM     23  O   UNL     1      62.406  18.604  -6.998  0.00  0.00    -0.302 OA
ATOM     24  H   UNL     1      63.003  18.499  -6.214  0.00  0.00    +0.222 HD
ENDBRANCH  21  23
BRANCH  21  25
ATOM     25  O   UNL     1      60.013  19.020  -5.589  0.00  0.00    -0.186 OA
BRANCH  25  26
ATOM     26  P   UNL     1      61.084  19.856  -4.563  0.00  0.00    +0.481 P 
ATOM     27  O   UNL     1      61.638  21.046  -5.311  0.00  0.00    -0.227 OA
BRANCH  26  28
ATOM     28  O   UNL     1      60.288  20.404  -3.172  0.00  0.00    -0.302 OA
ATOM     29  H   UNL     1      60.176  19.596  -2.609  0.00  0.00    +0.222 HD
ENDBRANCH  26  28
BRANCH  26  30
ATOM     30  O   UNL     1      62.368  18.845  -4.122  0.00  0.00    -0.302 OA
ATOM     31  H   UNL     1      62.865  18.686  -4.963  0.00  0.00    +0.222 HD
ENDBRANCH  26  30
ENDBRANCH  25  26
ENDBRANCH  21  25
ENDBRANCH  20  21
ENDBRANCH  19  20
ENDBRANCH   4  19
TORSDOF 11
ENDMDL
