MODEL 16
REMARK VINA RESULT:    -6.514      1.739      2.581
REMARK INTER + INTRA:         -11.073
REMARK INTER:                  -9.122
REMARK INTRA:                  -1.952
REMARK UNBOUND:                -1.322
REMARK  Name = UDP
REMARK  11 active torsions:
REMARK  status: ('A' for Active; 'I' for Inactive)
REMARK    1  A    between atoms: N_1  and  C_9
REMARK    2  A    between atoms: C_10  and  O_11
REMARK    3  A    between atoms: C_12  and  O_15
REMARK    4  A    between atoms: C_13  and  C_16
REMARK    5  A    between atoms: C_16  and  O_17
REMARK    6  A    between atoms: O_17  and  P_18
REMARK    7  A    between atoms: P_18  and  O_20
REMARK    8  A    between atoms: P_18  and  O_21
REMARK    9  A    between atoms: O_21  and  P_22
REMARK   10  A    between atoms: P_22  and  O_24
REMARK   11  A    between atoms: P_22  and  O_25
REMARK                            x       y       z     vdW  Elec       q    Type
REMARK                         _______ _______ _______ _____ _____    ______ ____
ROOT
ATOM      1  C   UNL     1      57.317  19.804  -1.803  0.00  0.00    +0.255 C 
ATOM      2  C   UNL     1      57.817  20.356  -0.457  0.00  0.00    +0.195 C 
ATOM      3  C   UNL     1      57.195  21.740  -0.382  0.00  0.00    +0.178 C 
ATOM      4  C   UNL     1      56.074  21.658  -1.411  0.00  0.00    +0.178 C 
ATOM      5  O   UNL     1      56.480  20.761  -2.419  0.00  0.00    -0.346 OA
ENDROOT
BRANCH   1   6
ATOM      6  N   UNL     1      58.448  19.464  -2.691  0.00  0.00    -0.271 N 
ATOM      7  C   UNL     1      58.787  18.160  -2.969  0.00  0.00    +0.331 A 
ATOM      8  N   UNL     1      59.824  17.882  -3.807  0.00  0.00    -0.275 N 
ATOM      9  C   UNL     1      60.536  18.877  -4.397  0.00  0.00    +0.254 A 
ATOM     10  C   UNL     1      60.205  20.205  -4.149  0.00  0.00    +0.088 A 
ATOM     11  C   UNL     1      59.145  20.479  -3.289  0.00  0.00    +0.098 A 
ATOM     12  O   UNL     1      58.140  17.205  -2.457  0.00  0.00    -0.246 OA
ATOM     13  O   UNL     1      61.492  18.600  -5.169  0.00  0.00    -0.268 OA
ATOM     14  H   UNL     1      60.074  16.886  -4.006  0.00  0.00    +0.173 HD
ENDBRANCH   1   6
BRANCH   2  15
ATOM     15  O   UNL     1      57.426  19.529   0.616  0.00  0.00    -0.385 OA
ATOM     16  H   UNL     1      58.063  19.672   1.364  0.00  0.00    +0.210 HD
ENDBRANCH   2  15
BRANCH   3  17
ATOM     17  O   UNL     1      56.685  22.040   0.892  0.00  0.00    -0.386 OA
ATOM     18  H   UNL     1      57.439  21.926   1.527  0.00  0.00    +0.210 HD
ENDBRANCH   3  17
BRANCH   4  19
ATOM     19  C   UNL     1      55.758  23.025  -2.023  0.00  0.00    +0.206 C 
BRANCH  19  20
ATOM     20  O   UNL     1      56.142  24.033  -1.118  0.00  0.00    -0.284 OA
BRANCH  20  21
ATOM     21  P   UNL     1      54.748  24.905  -0.670  0.00  0.00    +0.483 P 
ATOM     22  O   UNL     1      54.612  26.092  -1.597  0.00  0.00    -0.227 OA
BRANCH  21  23
ATOM     23  O   UNL     1      53.386  23.909  -0.837  0.00  0.00    -0.302 OA
ATOM     24  H   UNL     1      52.634  24.445  -0.477  0.00  0.00    +0.222 HD
ENDBRANCH  21  23
BRANCH  21  25
ATOM     25  O   UNL     1      54.925  25.452   0.933  0.00  0.00    -0.186 OA
BRANCH  25  26
ATOM     26  P   UNL     1      56.539  25.951   1.136  0.00  0.00    +0.481 P 
ATOM     27  O   UNL     1      56.586  27.005   2.217  0.00  0.00    -0.227 OA
BRANCH  26  28
ATOM     28  O   UNL     1      57.524  24.651   1.594  0.00  0.00    -0.302 OA
ATOM     29  H   UNL     1      57.645  24.758   2.572  0.00  0.00    +0.222 HD
ENDBRANCH  26  28
BRANCH  26  30
ATOM     30  O   UNL     1      57.120  26.624  -0.305  0.00  0.00    -0.302 OA
ATOM     31  H   UNL     1      57.633  27.422  -0.022  0.00  0.00    +0.222 HD
ENDBRANCH  26  30
ENDBRANCH  25  26
ENDBRANCH  21  25
ENDBRANCH  20  21
ENDBRANCH  19  20
ENDBRANCH   4  19
TORSDOF 11
ENDMDL
