MODEL 13
REMARK VINA RESULT:    -6.612      6.569      8.617
REMARK INTER + INTRA:         -11.219
REMARK INTER:                  -9.799
REMARK INTRA:                  -1.420
REMARK UNBOUND:                -1.322
REMARK  Name = UDP
REMARK  11 active torsions:
REMARK  status: ('A' for Active; 'I' for Inactive)
REMARK    1  A    between atoms: N_1  and  C_9
REMARK    2  A    between atoms: C_10  and  O_11
REMARK    3  A    between atoms: C_12  and  O_15
REMARK    4  A    between atoms: C_13  and  C_16
REMARK    5  A    between atoms: C_16  and  O_17
REMARK    6  A    between atoms: O_17  and  P_18
REMARK    7  A    between atoms: P_18  and  O_20
REMARK    8  A    between atoms: P_18  and  O_21
REMARK    9  A    between atoms: O_21  and  P_22
REMARK   10  A    between atoms: P_22  and  O_24
REMARK   11  A    between atoms: P_22  and  O_25
REMARK                            x       y       z     vdW  Elec       q    Type
REMARK                         _______ _______ _______ _____ _____    ______ ____
ROOT
ATOM      1  C   UNL     1      55.752  24.708  -0.444  0.00  0.00    +0.255 C 
ATOM      2  C   UNL     1      56.333  26.081  -0.065  0.00  0.00    +0.195 C 
ATOM      3  C   UNL     1      56.746  25.909   1.386  0.00  0.00    +0.178 C 
ATOM      4  C   UNL     1      56.799  24.394   1.541  0.00  0.00    +0.178 C 
ATOM      5  O   UNL     1      55.846  23.838   0.666  0.00  0.00    -0.346 OA
ENDROOT
BRANCH   1   6
ATOM      6  N   UNL     1      54.346  24.829  -0.884  0.00  0.00    -0.271 N 
ATOM      7  C   UNL     1      53.984  24.686  -2.203  0.00  0.00    +0.331 A 
ATOM      8  N   UNL     1      52.676  24.784  -2.572  0.00  0.00    -0.275 N 
ATOM      9  C   UNL     1      51.702  25.010  -1.652  0.00  0.00    +0.254 A 
ATOM     10  C   UNL     1      52.037  25.141  -0.308  0.00  0.00    +0.088 A 
ATOM     11  C   UNL     1      53.377  25.040   0.058  0.00  0.00    +0.098 A 
ATOM     12  O   UNL     1      54.853  24.457  -3.088  0.00  0.00    -0.246 OA
ATOM     13  O   UNL     1      50.498  25.098  -2.013  0.00  0.00    -0.268 OA
ATOM     14  H   UNL     1      52.415  24.679  -3.579  0.00  0.00    +0.173 HD
ENDBRANCH   1   6
BRANCH   2  15
ATOM     15  O   UNL     1      57.415  26.429  -0.898  0.00  0.00    -0.385 OA
ATOM     16  H   UNL     1      58.045  26.988  -0.370  0.00  0.00    +0.210 HD
ENDBRANCH   2  15
BRANCH   3  17
ATOM     17  O   UNL     1      57.995  26.487   1.670  0.00  0.00    -0.386 OA
ATOM     18  H   UNL     1      57.918  26.883   2.577  0.00  0.00    +0.210 HD
ENDBRANCH   3  17
BRANCH   4  19
ATOM     19  C   UNL     1      56.510  23.955   2.978  0.00  0.00    +0.206 C 
BRANCH  19  20
ATOM     20  O   UNL     1      55.148  24.178   3.261  0.00  0.00    -0.284 OA
BRANCH  20  21
ATOM     21  P   UNL     1      54.442  22.686   3.686  0.00  0.00    +0.483 P 
ATOM     22  O   UNL     1      52.943  22.807   3.520  0.00  0.00    -0.227 OA
BRANCH  21  23
ATOM     23  O   UNL     1      55.021  21.476   2.650  0.00  0.00    -0.302 OA
ATOM     24  H   UNL     1      55.875  21.832   2.296  0.00  0.00    +0.222 HD
ENDBRANCH  21  23
BRANCH  21  25
ATOM     25  O   UNL     1      54.808  22.340   5.312  0.00  0.00    -0.186 OA
BRANCH  25  26
ATOM     26  P   UNL     1      53.794  21.069   5.813  0.00  0.00    +0.481 P 
ATOM     27  O   UNL     1      53.855  19.967   4.780  0.00  0.00    -0.227 OA
BRANCH  26  28
ATOM     28  O   UNL     1      54.293  20.446   7.308  0.00  0.00    -0.302 OA
ATOM     29  H   UNL     1      54.869  19.672   7.080  0.00  0.00    +0.222 HD
ENDBRANCH  26  28
BRANCH  26  30
ATOM     30  O   UNL     1      52.196  21.616   5.930  0.00  0.00    -0.302 OA
ATOM     31  H   UNL     1      51.732  21.207   5.157  0.00  0.00    +0.222 HD
ENDBRANCH  26  30
ENDBRANCH  25  26
ENDBRANCH  21  25
ENDBRANCH  20  21
ENDBRANCH  19  20
ENDBRANCH   4  19
TORSDOF 11
ENDMDL
