MODEL 17
REMARK VINA RESULT:    -6.475      2.832      4.627
REMARK INTER + INTRA:         -11.014
REMARK INTER:                  -9.074
REMARK INTRA:                  -1.940
REMARK UNBOUND:                -1.322
REMARK  Name = UDP
REMARK  11 active torsions:
REMARK  status: ('A' for Active; 'I' for Inactive)
REMARK    1  A    between atoms: N_1  and  C_9
REMARK    2  A    between atoms: C_10  and  O_11
REMARK    3  A    between atoms: C_12  and  O_15
REMARK    4  A    between atoms: C_13  and  C_16
REMARK    5  A    between atoms: C_16  and  O_17
REMARK    6  A    between atoms: O_17  and  P_18
REMARK    7  A    between atoms: P_18  and  O_20
REMARK    8  A    between atoms: P_18  and  O_21
REMARK    9  A    between atoms: O_21  and  P_22
REMARK   10  A    between atoms: P_22  and  O_24
REMARK   11  A    between atoms: P_22  and  O_25
REMARK                            x       y       z     vdW  Elec       q    Type
REMARK                         _______ _______ _______ _____ _____    ______ ____
ROOT
ATOM      1  C   UNL     1      58.609  19.219  -6.554  0.00  0.00    +0.255 C 
ATOM      2  C   UNL     1      57.751  18.362  -7.502  0.00  0.00    +0.195 C 
ATOM      3  C   UNL     1      56.412  18.272  -6.793  0.00  0.00    +0.178 C 
ATOM      4  C   UNL     1      56.483  19.423  -5.797  0.00  0.00    +0.178 C 
ATOM      5  O   UNL     1      57.832  19.597  -5.436  0.00  0.00    -0.346 OA
ENDROOT
BRANCH   1   6
ATOM      6  N   UNL     1      59.814  18.485  -6.118  0.00  0.00    -0.271 N 
ATOM      7  C   UNL     1      61.066  18.793  -6.600  0.00  0.00    +0.331 A 
ATOM      8  N   UNL     1      62.159  18.108  -6.163  0.00  0.00    -0.275 N 
ATOM      9  C   UNL     1      62.045  17.121  -5.236  0.00  0.00    +0.254 A 
ATOM     10  C   UNL     1      60.795  16.801  -4.717  0.00  0.00    +0.088 A 
ATOM     11  C   UNL     1      59.683  17.505  -5.172  0.00  0.00    +0.098 A 
ATOM     12  O   UNL     1      61.219  19.714  -7.448  0.00  0.00    -0.246 OA
ATOM     13  O   UNL     1      63.068  16.500  -4.844  0.00  0.00    -0.268 OA
ATOM     14  H   UNL     1      63.104  18.348  -6.542  0.00  0.00    +0.173 HD
ENDBRANCH   1   6
BRANCH   2  15
ATOM     15  O   UNL     1      57.649  18.953  -8.778  0.00  0.00    -0.385 OA
ATOM     16  H   UNL     1      58.002  18.308  -9.446  0.00  0.00    +0.210 HD
ENDBRANCH   2  15
BRANCH   3  17
ATOM     17  O   UNL     1      55.322  18.429  -7.664  0.00  0.00    -0.386 OA
ATOM     18  H   UNL     1      55.326  17.636  -8.262  0.00  0.00    +0.210 HD
ENDBRANCH   3  17
BRANCH   4  19
ATOM     19  C   UNL     1      55.637  19.154  -4.550  0.00  0.00    +0.206 C 
BRANCH  19  20
ATOM     20  O   UNL     1      55.627  20.309  -3.744  0.00  0.00    -0.284 OA
BRANCH  20  21
ATOM     21  P   UNL     1      56.217  19.888  -2.202  0.00  0.00    +0.483 P 
ATOM     22  O   UNL     1      55.197  18.993  -1.532  0.00  0.00    -0.227 OA
BRANCH  21  23
ATOM     23  O   UNL     1      57.675  19.041  -2.371  0.00  0.00    -0.302 OA
ATOM     24  H   UNL     1      57.565  18.231  -1.811  0.00  0.00    +0.222 HD
ENDBRANCH  21  23
BRANCH  21  25
ATOM     25  O   UNL     1      56.424  21.305  -1.279  0.00  0.00    -0.186 OA
BRANCH  25  26
ATOM     26  P   UNL     1      57.963  21.936  -1.637  0.00  0.00    +0.481 P 
ATOM     27  O   UNL     1      57.924  23.436  -1.451  0.00  0.00    -0.227 OA
BRANCH  26  28
ATOM     28  O   UNL     1      59.140  21.286  -0.608  0.00  0.00    -0.302 OA
ATOM     29  H   UNL     1      59.964  21.246  -1.158  0.00  0.00    +0.222 HD
ENDBRANCH  26  28
BRANCH  26  30
ATOM     30  O   UNL     1      58.366  21.599  -3.246  0.00  0.00    -0.302 OA
ATOM     31  H   UNL     1      57.911  20.743  -3.446  0.00  0.00    +0.222 HD
ENDBRANCH  26  30
ENDBRANCH  25  26
ENDBRANCH  21  25
ENDBRANCH  20  21
ENDBRANCH  19  20
ENDBRANCH   4  19
TORSDOF 11
ENDMDL
