MODEL 5
REMARK VINA RESULT:    -6.978      4.189      7.657
REMARK INTER + INTRA:         -11.768
REMARK INTER:                 -10.265
REMARK INTRA:                  -1.503
REMARK UNBOUND:                -1.322
REMARK  Name = UDP
REMARK  11 active torsions:
REMARK  status: ('A' for Active; 'I' for Inactive)
REMARK    1  A    between atoms: N_1  and  C_9
REMARK    2  A    between atoms: C_10  and  O_11
REMARK    3  A    between atoms: C_12  and  O_15
REMARK    4  A    between atoms: C_13  and  C_16
REMARK    5  A    between atoms: C_16  and  O_17
REMARK    6  A    between atoms: O_17  and  P_18
REMARK    7  A    between atoms: P_18  and  O_20
REMARK    8  A    between atoms: P_18  and  O_21
REMARK    9  A    between atoms: O_21  and  P_22
REMARK   10  A    between atoms: P_22  and  O_24
REMARK   11  A    between atoms: P_22  and  O_25
REMARK                            x       y       z     vdW  Elec       q    Type
REMARK                         _______ _______ _______ _____ _____    ______ ____
ROOT
ATOM      1  C   UNL     1      60.358  20.017  -4.570  0.00  0.00    +0.255 C 
ATOM      2  C   UNL     1      61.582  19.092  -4.444  0.00  0.00    +0.195 C 
ATOM      3  C   UNL     1      61.735  18.506  -5.836  0.00  0.00    +0.178 C 
ATOM      4  C   UNL     1      60.923  19.468  -6.695  0.00  0.00    +0.178 C 
ATOM      5  O   UNL     1      59.879  19.980  -5.899  0.00  0.00    -0.346 OA
ENDROOT
BRANCH   1   6
ATOM      6  N   UNL     1      59.291  19.617  -3.628  0.00  0.00    -0.271 N 
ATOM      7  C   UNL     1      58.473  20.543  -3.023  0.00  0.00    +0.331 A 
ATOM      8  N   UNL     1      57.487  20.138  -2.175  0.00  0.00    -0.275 N 
ATOM      9  C   UNL     1      57.278  18.821  -1.918  0.00  0.00    +0.254 A 
ATOM     10  C   UNL     1      58.077  17.862  -2.530  0.00  0.00    +0.088 A 
ATOM     11  C   UNL     1      59.084  18.285  -3.394  0.00  0.00    +0.098 A 
ATOM     12  O   UNL     1      58.620  21.775  -3.248  0.00  0.00    -0.246 OA
ATOM     13  O   UNL     1      56.360  18.467  -1.131  0.00  0.00    -0.268 OA
ATOM     14  H   UNL     1      56.876  20.853  -1.717  0.00  0.00    +0.173 HD
ENDBRANCH   1   6
BRANCH   2  15
ATOM     15  O   UNL     1      62.725  19.805  -4.029  0.00  0.00    -0.385 OA
ATOM     16  H   UNL     1      62.426  20.568  -3.467  0.00  0.00    +0.210 HD
ENDBRANCH   2  15
BRANCH   3  17
ATOM     17  O   UNL     1      63.072  18.459  -6.264  0.00  0.00    -0.386 OA
ATOM     18  H   UNL     1      63.136  17.693  -6.893  0.00  0.00    +0.210 HD
ENDBRANCH   3  17
BRANCH   4  19
ATOM     19  C   UNL     1      60.346  18.781  -7.935  0.00  0.00    +0.206 C 
BRANCH  19  20
ATOM     20  O   UNL     1      59.851  17.515  -7.571  0.00  0.00    -0.284 OA
BRANCH  20  21
ATOM     21  P   UNL     1      58.164  17.513  -7.812  0.00  0.00    +0.483 P 
ATOM     22  O   UNL     1      57.818  18.647  -8.751  0.00  0.00    -0.227 OA
BRANCH  21  23
ATOM     23  O   UNL     1      57.699  16.043  -8.518  0.00  0.00    -0.302 OA
ATOM     24  H   UNL     1      56.815  15.840  -8.121  0.00  0.00    +0.222 HD
ENDBRANCH  21  23
BRANCH  21  25
ATOM     25  O   UNL     1      57.387  17.757  -6.316  0.00  0.00    -0.186 OA
BRANCH  25  26
ATOM     26  P   UNL     1      55.709  17.742  -6.594  0.00  0.00    +0.481 P 
ATOM     27  O   UNL     1      55.324  16.392  -7.153  0.00  0.00    -0.227 OA
BRANCH  26  28
ATOM     28  O   UNL     1      54.852  18.004  -5.156  0.00  0.00    -0.302 OA
ATOM     29  H   UNL     1      55.283  17.407  -4.492  0.00  0.00    +0.222 HD
ENDBRANCH  26  28
BRANCH  26  30
ATOM     30  O   UNL     1      55.300  18.935  -7.724  0.00  0.00    -0.302 OA
ATOM     31  H   UNL     1      55.777  19.747  -7.417  0.00  0.00    +0.222 HD
ENDBRANCH  26  30
ENDBRANCH  25  26
ENDBRANCH  21  25
ENDBRANCH  20  21
ENDBRANCH  19  20
ENDBRANCH   4  19
TORSDOF 11
ENDMDL
