MODEL 9
REMARK VINA RESULT:    -6.738      7.396     10.911
REMARK INTER + INTRA:         -11.409
REMARK INTER:                  -9.386
REMARK INTRA:                  -2.023
REMARK UNBOUND:                -1.322
REMARK  Name = UDP
REMARK  11 active torsions:
REMARK  status: ('A' for Active; 'I' for Inactive)
REMARK    1  A    between atoms: N_1  and  C_9
REMARK    2  A    between atoms: C_10  and  O_11
REMARK    3  A    between atoms: C_12  and  O_15
REMARK    4  A    between atoms: C_13  and  C_16
REMARK    5  A    between atoms: C_16  and  O_17
REMARK    6  A    between atoms: O_17  and  P_18
REMARK    7  A    between atoms: P_18  and  O_20
REMARK    8  A    between atoms: P_18  and  O_21
REMARK    9  A    between atoms: O_21  and  P_22
REMARK   10  A    between atoms: P_22  and  O_24
REMARK   11  A    between atoms: P_22  and  O_25
REMARK                            x       y       z     vdW  Elec       q    Type
REMARK                         _______ _______ _______ _____ _____    ______ ____
ROOT
ATOM      1  C   UNL     1      55.234  18.995   2.805  0.00  0.00    +0.255 C 
ATOM      2  C   UNL     1      56.570  18.238   2.913  0.00  0.00    +0.195 C 
ATOM      3  C   UNL     1      56.158  16.777   2.907  0.00  0.00    +0.178 C 
ATOM      4  C   UNL     1      54.744  16.831   2.342  0.00  0.00    +0.178 C 
ATOM      5  O   UNL     1      54.175  18.062   2.722  0.00  0.00    -0.346 OA
ENDROOT
BRANCH   1   6
ATOM      6  N   UNL     1      55.038  19.893   3.962  0.00  0.00    -0.271 N 
ATOM      7  C   UNL     1      55.416  21.216   3.926  0.00  0.00    +0.331 A 
ATOM      8  N   UNL     1      55.202  22.021   5.003  0.00  0.00    -0.275 N 
ATOM      9  C   UNL     1      54.603  21.548   6.127  0.00  0.00    +0.254 A 
ATOM     10  C   UNL     1      54.193  20.220   6.184  0.00  0.00    +0.088 A 
ATOM     11  C   UNL     1      54.417  19.404   5.079  0.00  0.00    +0.098 A 
ATOM     12  O   UNL     1      55.960  21.701   2.896  0.00  0.00    -0.246 OA
ATOM     13  O   UNL     1      54.414  22.309   7.112  0.00  0.00    -0.268 OA
ATOM     14  H   UNL     1      55.500  23.023   4.965  0.00  0.00    +0.173 HD
ENDBRANCH   1   6
BRANCH   2  15
ATOM     15  O   UNL     1      57.432  18.562   1.845  0.00  0.00    -0.385 OA
ATOM     16  H   UNL     1      57.449  17.792   1.218  0.00  0.00    +0.210 HD
ENDBRANCH   2  15
BRANCH   3  17
ATOM     17  O   UNL     1      56.989  15.980   2.103  0.00  0.00    -0.386 OA
ATOM     18  H   UNL     1      56.961  15.067   2.493  0.00  0.00    +0.210 HD
ENDBRANCH   3  17
BRANCH   4  19
ATOM     19  C   UNL     1      53.879  15.676   2.852  0.00  0.00    +0.206 C 
BRANCH  19  20
ATOM     20  O   UNL     1      53.689  14.749   1.809  0.00  0.00    -0.284 OA
BRANCH  20  21
ATOM     21  P   UNL     1      54.478  13.300   2.234  0.00  0.00    +0.483 P 
ATOM     22  O   UNL     1      54.864  13.380   3.695  0.00  0.00    -0.227 OA
BRANCH  21  23
ATOM     23  O   UNL     1      53.418  11.996   2.008  0.00  0.00    -0.302 OA
ATOM     24  H   UNL     1      52.519  12.408   1.949  0.00  0.00    +0.222 HD
ENDBRANCH  21  23
BRANCH  21  25
ATOM     25  O   UNL     1      55.882  13.131   1.284  0.00  0.00    -0.186 OA
BRANCH  25  26
ATOM     26  P   UNL     1      55.481  13.558  -0.314  0.00  0.00    +0.481 P 
ATOM     27  O   UNL     1      56.470  12.902  -1.250  0.00  0.00    -0.227 OA
BRANCH  26  28
ATOM     28  O   UNL     1      53.920  13.033  -0.710  0.00  0.00    -0.302 OA
ATOM     29  H   UNL     1      53.782  12.215  -0.167  0.00  0.00    +0.222 HD
ENDBRANCH  26  28
BRANCH  26  30
ATOM     30  O   UNL     1      55.582  15.237  -0.506  0.00  0.00    -0.302 OA
ATOM     31  H   UNL     1      54.668  15.568  -0.317  0.00  0.00    +0.222 HD
ENDBRANCH  26  30
ENDBRANCH  25  26
ENDBRANCH  21  25
ENDBRANCH  20  21
ENDBRANCH  19  20
ENDBRANCH   4  19
TORSDOF 11
ENDMDL
