MODEL 6
REMARK VINA RESULT:    -6.916      3.990      5.571
REMARK INTER + INTRA:         -11.675
REMARK INTER:                  -9.875
REMARK INTRA:                  -1.800
REMARK UNBOUND:                -1.322
REMARK  Name = UDP
REMARK  11 active torsions:
REMARK  status: ('A' for Active; 'I' for Inactive)
REMARK    1  A    between atoms: N_1  and  C_9
REMARK    2  A    between atoms: C_10  and  O_11
REMARK    3  A    between atoms: C_12  and  O_15
REMARK    4  A    between atoms: C_13  and  C_16
REMARK    5  A    between atoms: C_16  and  O_17
REMARK    6  A    between atoms: O_17  and  P_18
REMARK    7  A    between atoms: P_18  and  O_20
REMARK    8  A    between atoms: P_18  and  O_21
REMARK    9  A    between atoms: O_21  and  P_22
REMARK   10  A    between atoms: P_22  and  O_24
REMARK   11  A    between atoms: P_22  and  O_25
REMARK                            x       y       z     vdW  Elec       q    Type
REMARK                         _______ _______ _______ _____ _____    ______ ____
ROOT
ATOM      1  C   UNL     1      58.157  18.577  -7.700  0.00  0.00    +0.255 C 
ATOM      2  C   UNL     1      57.813  17.126  -7.320  0.00  0.00    +0.195 C 
ATOM      3  C   UNL     1      56.384  17.214  -6.817  0.00  0.00    +0.178 C 
ATOM      4  C   UNL     1      55.914  18.550  -7.380  0.00  0.00    +0.178 C 
ATOM      5  O   UNL     1      57.033  19.400  -7.462  0.00  0.00    -0.346 OA
ENDROOT
BRANCH   1   6
ATOM      6  N   UNL     1      59.323  19.065  -6.935  0.00  0.00    -0.271 N 
ATOM      7  C   UNL     1      60.555  19.240  -7.522  0.00  0.00    +0.331 A 
ATOM      8  N   UNL     1      61.604  19.710  -6.792  0.00  0.00    -0.275 N 
ATOM      9  C   UNL     1      61.459  20.030  -5.479  0.00  0.00    +0.254 A 
ATOM     10  C   UNL     1      60.221  19.881  -4.864  0.00  0.00    +0.088 A 
ATOM     11  C   UNL     1      59.155  19.398  -5.618  0.00  0.00    +0.098 A 
ATOM     12  O   UNL     1      60.729  18.973  -8.743  0.00  0.00    -0.246 OA
ATOM     13  O   UNL     1      62.442  20.464  -4.821  0.00  0.00    -0.268 OA
ATOM     14  H   UNL     1      62.537  19.833  -7.249  0.00  0.00    +0.173 HD
ENDBRANCH   1   6
BRANCH   2  15
ATOM     15  O   UNL     1      57.947  16.259  -8.424  0.00  0.00    -0.385 OA
ATOM     16  H   UNL     1      58.359  16.770  -9.169  0.00  0.00    +0.210 HD
ENDBRANCH   2  15
BRANCH   3  17
ATOM     17  O   UNL     1      55.577  16.163  -7.281  0.00  0.00    -0.386 OA
ATOM     18  H   UNL     1      54.982  16.553  -7.974  0.00  0.00    +0.210 HD
ENDBRANCH   3  17
BRANCH   4  19
ATOM     19  C   UNL     1      54.833  19.191  -6.506  0.00  0.00    +0.206 C 
BRANCH  19  20
ATOM     20  O   UNL     1      55.434  20.135  -5.651  0.00  0.00    -0.284 OA
BRANCH  20  21
ATOM     21  P   UNL     1      54.213  20.836  -4.690  0.00  0.00    +0.483 P 
ATOM     22  O   UNL     1      54.480  22.322  -4.594  0.00  0.00    -0.227 OA
BRANCH  21  23
ATOM     23  O   UNL     1      52.707  20.587  -5.427  0.00  0.00    -0.302 OA
ATOM     24  H   UNL     1      52.860  20.773  -6.388  0.00  0.00    +0.222 HD
ENDBRANCH  21  23
BRANCH  21  25
ATOM     25  O   UNL     1      54.266  20.146  -3.134  0.00  0.00    -0.186 OA
BRANCH  25  26
ATOM     26  P   UNL     1      55.898  19.856  -2.750  0.00  0.00    +0.481 P 
ATOM     27  O   UNL     1      56.029  19.747  -1.248  0.00  0.00    -0.227 OA
BRANCH  26  28
ATOM     28  O   UNL     1      56.440  18.414  -3.454  0.00  0.00    -0.302 OA
ATOM     29  H   UNL     1      55.967  17.697  -2.959  0.00  0.00    +0.222 HD
ENDBRANCH  26  28
BRANCH  26  30
ATOM     30  O   UNL     1      56.856  21.145  -3.287  0.00  0.00    -0.302 OA
ATOM     31  H   UNL     1      56.277  21.645  -3.915  0.00  0.00    +0.222 HD
ENDBRANCH  26  30
ENDBRANCH  25  26
ENDBRANCH  21  25
ENDBRANCH  20  21
ENDBRANCH  19  20
ENDBRANCH   4  19
TORSDOF 11
ENDMDL
