MODEL 4
REMARK VINA RESULT:    -7.018      6.080      8.363
REMARK INTER + INTRA:         -11.828
REMARK INTER:                 -10.318
REMARK INTRA:                  -1.511
REMARK UNBOUND:                -1.322
REMARK  Name = UDP
REMARK  11 active torsions:
REMARK  status: ('A' for Active; 'I' for Inactive)
REMARK    1  A    between atoms: N_1  and  C_9
REMARK    2  A    between atoms: C_10  and  O_11
REMARK    3  A    between atoms: C_12  and  O_15
REMARK    4  A    between atoms: C_13  and  C_16
REMARK    5  A    between atoms: C_16  and  O_17
REMARK    6  A    between atoms: O_17  and  P_18
REMARK    7  A    between atoms: P_18  and  O_20
REMARK    8  A    between atoms: P_18  and  O_21
REMARK    9  A    between atoms: O_21  and  P_22
REMARK   10  A    between atoms: P_22  and  O_24
REMARK   11  A    between atoms: P_22  and  O_25
REMARK                            x       y       z     vdW  Elec       q    Type
REMARK                         _______ _______ _______ _____ _____    ______ ____
ROOT
ATOM      1  C   UNL     1      58.161  18.538  -7.658  0.00  0.00    +0.255 C 
ATOM      2  C   UNL     1      57.684  17.155  -7.181  0.00  0.00    +0.195 C 
ATOM      3  C   UNL     1      56.219  17.374  -6.848  0.00  0.00    +0.178 C 
ATOM      4  C   UNL     1      55.900  18.670  -7.584  0.00  0.00    +0.178 C 
ATOM      5  O   UNL     1      57.077  19.443  -7.624  0.00  0.00    -0.346 OA
ENDROOT
BRANCH   1   6
ATOM      6  N   UNL     1      59.272  19.035  -6.820  0.00  0.00    -0.271 N 
ATOM      7  C   UNL     1      60.536  19.227  -7.329  0.00  0.00    +0.331 A 
ATOM      8  N   UNL     1      61.532  19.705  -6.533  0.00  0.00    -0.275 N 
ATOM      9  C   UNL     1      61.303  20.015  -5.230  0.00  0.00    +0.254 A 
ATOM     10  C   UNL     1      60.031  19.848  -4.693  0.00  0.00    +0.088 A 
ATOM     11  C   UNL     1      59.019  19.357  -5.514  0.00  0.00    +0.098 A 
ATOM     12  O   UNL     1      60.788  18.970  -8.538  0.00  0.00    -0.246 OA
ATOM     13  O   UNL     1      62.238  20.456  -4.510  0.00  0.00    -0.268 OA
ATOM     14  H   UNL     1      62.490  19.842  -6.931  0.00  0.00    +0.173 HD
ENDBRANCH   1   6
BRANCH   2  15
ATOM     15  O   UNL     1      57.872  16.174  -8.176  0.00  0.00    -0.385 OA
ATOM     16  H   UNL     1      57.671  16.586  -9.057  0.00  0.00    +0.210 HD
ENDBRANCH   2  15
BRANCH   3  17
ATOM     17  O   UNL     1      55.396  16.328  -7.296  0.00  0.00    -0.386 OA
ATOM     18  H   UNL     1      54.463  16.665  -7.241  0.00  0.00    +0.210 HD
ENDBRANCH   3  17
BRANCH   4  19
ATOM     19  C   UNL     1      54.780  19.457  -6.898  0.00  0.00    +0.206 C 
BRANCH  19  20
ATOM     20  O   UNL     1      53.934  20.003  -7.883  0.00  0.00    -0.284 OA
BRANCH  20  21
ATOM     21  P   UNL     1      52.451  19.164  -7.834  0.00  0.00    +0.483 P 
ATOM     22  O   UNL     1      52.657  17.881  -7.059  0.00  0.00    -0.227 OA
BRANCH  21  23
ATOM     23  O   UNL     1      51.294  20.115  -7.041  0.00  0.00    -0.302 OA
ATOM     24  H   UNL     1      51.591  21.049  -7.186  0.00  0.00    +0.222 HD
ENDBRANCH  21  23
BRANCH  21  25
ATOM     25  O   UNL     1      51.968  18.795  -9.426  0.00  0.00    -0.186 OA
BRANCH  25  26
ATOM     26  P   UNL     1      50.835  17.528  -9.344  0.00  0.00    +0.481 P 
ATOM     27  O   UNL     1      49.984  17.562 -10.592  0.00  0.00    -0.227 OA
BRANCH  26  28
ATOM     28  O   UNL     1      51.610  16.025  -9.249  0.00  0.00    -0.302 OA
ATOM     29  H   UNL     1      51.918  15.958  -8.309  0.00  0.00    +0.222 HD
ENDBRANCH  26  28
BRANCH  26  30
ATOM     30  O   UNL     1      49.832  17.737  -7.996  0.00  0.00    -0.302 OA
ATOM     31  H   UNL     1      50.308  18.392  -7.426  0.00  0.00    +0.222 HD
ENDBRANCH  26  30
ENDBRANCH  25  26
ENDBRANCH  21  25
ENDBRANCH  20  21
ENDBRANCH  19  20
ENDBRANCH   4  19
TORSDOF 11
ENDMDL
