MODEL 1
REMARK VINA RESULT:    -6.051      0.000      0.000
REMARK INTER + INTRA:         -11.202
REMARK INTER:                  -8.704
REMARK INTRA:                  -2.499
REMARK UNBOUND:                -2.499
REMARK  Name = laboratorio_evolutivo\Gen4_Mutante_4.pdb
REMARK  12 active torsions:
REMARK  status: ('A' for Active; 'I' for Inactive)
REMARK    1  A    between atoms: C1_1  and  C2_2
REMARK    2  A    between atoms: C2_2  and  C3_3
REMARK    3  A    between atoms: C3_3  and  C4_4
REMARK    4  A    between atoms: C4_4  and  C5_5
REMARK    5  A    between atoms: C4_4  and  C6_6
REMARK    6  A    between atoms: C6_6  and  C7_7
REMARK    7  A    between atoms: C7_7  and  C8_9
REMARK    8  A    between atoms: C9_10  and  C10_11
REMARK    9  A    between atoms: C13_14  and  C14_15
REMARK   10  A    between atoms: C16_18  and  C17_19
REMARK   11  A    between atoms: C19_21  and  C20_22
REMARK   12  A    between atoms: N2_23  and  O2_24
REMARK                            x       y       z     vdW  Elec       q    Type
REMARK                         _______ _______ _______ _____ _____    ______ ____
ROOT
ATOM      1  C8  UNL     1       1.519  -1.973  18.709  0.00  0.00    +0.000 C 
ATOM      2  C9  UNL     1       1.973  -3.005  17.667  0.00  0.00    +0.000 C 
ATOM      3  C10 UNL     1       2.990  -4.000  18.209  0.00  0.00    +0.000 C 
ATOM      4  C11 UNL     1       2.552  -2.135  16.554  0.00  0.00    +0.000 C 
ATOM      5  C12 UNL     1       1.599  -0.948  16.468  0.00  0.00    +0.000 C 
ATOM      6  C13 UNL     1       0.978  -0.792  17.870  0.00  0.00    +0.000 C 
ENDROOT
BRANCH   6   7
ATOM      7  C14 UNL     1       1.159   0.568  18.511  0.00  0.00    +0.000 C 
ATOM      8  C15 UNL     1       2.377   1.225  18.340  0.00  0.00    +0.000 C 
ATOM      9  N1  UNL     1       2.673   2.456  18.819  0.00  0.00    +0.000 NA
ATOM     10  C16 UNL     1       1.711   3.113  19.500  0.00  0.00    +0.000 C 
ATOM     11  C17 UNL     1       2.037   4.484  20.009  0.00  0.00    +0.000 C 
ATOM     12  C18 UNL     1       0.464   2.558  19.733  0.00  0.00    +0.000 C 
ATOM     13  C19 UNL     1       0.195   1.280  19.235  0.00  0.00    +0.000 C 
BRANCH  13  14
ATOM     14  C20 UNL     1      -1.124   0.713  19.566  0.00  0.00    +0.000 C 
ATOM     15  N2  UNL     1      -2.205   0.772  18.848  0.00  0.00    +0.000 NA
BRANCH  15  16
ATOM     16  O2  UNL     1      -1.980   1.418  17.628  0.00  0.00    +0.000 OA
ATOM     17  H   UNL     1      -2.086   0.950  16.824  0.00  0.00    +0.000 HD
ENDBRANCH  15  16
ENDBRANCH  13  14
ENDBRANCH   6   7
BRANCH   1  18
ATOM     18  C7  UNL     1       0.515  -2.564  19.697  0.00  0.00    +0.000 C 
ATOM     19  O1  UNL     1      -0.347  -3.351  19.298  0.00  0.00    +0.000 OA
BRANCH  18  20
ATOM     20  C6  UNL     1       0.597  -2.165  21.165  0.00  0.00    +0.000 C 
BRANCH  20  21
ATOM     21  C4  UNL     1       1.982  -1.631  21.579  0.00  0.00    +0.000 C 
ATOM     22  C5  UNL     1       2.656  -2.600  22.557  0.00  0.00    +0.000 C 
BRANCH  21  23
ATOM     23  C3  UNL     1       1.824  -0.222  22.187  0.00  0.00    +0.000 C 
BRANCH  23  25
ATOM     24  C1  UNL     1       3.146   1.703  23.136  0.00  0.00    +0.000 C 
ATOM     25  C2  UNL     1       3.069   0.654  22.037  0.00  0.00    +0.000 C 
ENDBRANCH  23  25
ENDBRANCH  21  23
ENDBRANCH  20  21
ENDBRANCH  18  20
ENDBRANCH   1  18
TORSDOF 8
ENDMDL
MODEL 2
REMARK VINA RESULT:    -5.952      2.174      5.697
REMARK INTER + INTRA:         -11.061
REMARK INTER:                  -9.056
REMARK INTRA:                  -2.005
REMARK UNBOUND:                -2.499
REMARK  Name = laboratorio_evolutivo\Gen4_Mutante_4.pdb
REMARK  12 active torsions:
REMARK  status: ('A' for Active; 'I' for Inactive)
REMARK    1  A    between atoms: C1_1  and  C2_2
REMARK    2  A    between atoms: C2_2  and  C3_3
REMARK    3  A    between atoms: C3_3  and  C4_4
REMARK    4  A    between atoms: C4_4  and  C5_5
REMARK    5  A    between atoms: C4_4  and  C6_6
REMARK    6  A    between atoms: C6_6  and  C7_7
REMARK    7  A    between atoms: C7_7  and  C8_9
REMARK    8  A    between atoms: C9_10  and  C10_11
REMARK    9  A    between atoms: C13_14  and  C14_15
REMARK   10  A    between atoms: C16_18  and  C17_19
REMARK   11  A    between atoms: C19_21  and  C20_22
REMARK   12  A    between atoms: N2_23  and  O2_24
REMARK                            x       y       z     vdW  Elec       q    Type
REMARK                         _______ _______ _______ _____ _____    ______ ____
ROOT
ATOM      1  C8  UNL     1       2.025   0.869  20.390  0.00  0.00    +0.000 C 
ATOM      2  C9  UNL     1       2.727   1.580  21.556  0.00  0.00    +0.000 C 
ATOM      3  C10 UNL     1       4.067   2.192  21.168  0.00  0.00    +0.000 C 
ATOM      4  C11 UNL     1       2.876   0.471  22.593  0.00  0.00    +0.000 C 
ATOM      5  C12 UNL     1       1.564  -0.303  22.509  0.00  0.00    +0.000 C 
ATOM      6  C13 UNL     1       1.041  -0.108  21.073  0.00  0.00    +0.000 C 
ENDROOT
BRANCH   6   7
ATOM      7  C14 UNL     1       0.785  -1.384  20.298  0.00  0.00    +0.000 C 
ATOM      8  C15 UNL     1       1.835  -2.289  20.144  0.00  0.00    +0.000 C 
ATOM      9  N1  UNL     1       1.751  -3.483  19.513  0.00  0.00    +0.000 NA
ATOM     10  C16 UNL     1       0.552  -3.841  19.006  0.00  0.00    +0.000 C 
ATOM     11  C17 UNL     1       0.459  -5.174  18.327  0.00  0.00    +0.000 C 
ATOM     12  C18 UNL     1      -0.561  -3.022  19.096  0.00  0.00    +0.000 C 
ATOM     13  C19 UNL     1      -0.435  -1.790  19.744  0.00  0.00    +0.000 C 
BRANCH  13  14
ATOM     14  C20 UNL     1      -1.633  -0.933  19.756  0.00  0.00    +0.000 C 
ATOM     15  N2  UNL     1      -2.568  -0.904  20.658  0.00  0.00    +0.000 NA
BRANCH  15  16
ATOM     16  O2  UNL     1      -2.293  -1.780  21.714  0.00  0.00    +0.000 OA
ATOM     17  H   UNL     1      -2.594  -1.580  22.578  0.00  0.00    +0.000 HD
ENDBRANCH  15  16
ENDBRANCH  13  14
ENDBRANCH   6   7
BRANCH   1  18
ATOM     18  C7  UNL     1       1.372   1.861  19.428  0.00  0.00    +0.000 C 
ATOM     19  O1  UNL     1       0.234   2.278  19.657  0.00  0.00    +0.000 OA
BRANCH  18  20
ATOM     20  C6  UNL     1       2.144   2.316  18.195  0.00  0.00    +0.000 C 
BRANCH  20  21
ATOM     21  C4  UNL     1       1.593   1.737  16.878  0.00  0.00    +0.000 C 
ATOM     22  C5  UNL     1       0.370   2.537  16.414  0.00  0.00    +0.000 C 
BRANCH  21  23
ATOM     23  C3  UNL     1       1.257   0.244  17.079  0.00  0.00    +0.000 C 
BRANCH  23  25
ATOM     24  C1  UNL     1       2.108  -1.944  16.163  0.00  0.00    +0.000 C 
ATOM     25  C2  UNL     1       2.466  -0.682  16.933  0.00  0.00    +0.000 C 
ENDBRANCH  23  25
ENDBRANCH  21  23
ENDBRANCH  20  21
ENDBRANCH  18  20
ENDBRANCH   1  18
TORSDOF 8
ENDMDL
MODEL 3
REMARK VINA RESULT:    -5.877      2.642      5.729
REMARK INTER + INTRA:         -10.953
REMARK INTER:                  -8.884
REMARK INTRA:                  -2.069
REMARK UNBOUND:                -2.499
REMARK  Name = laboratorio_evolutivo\Gen4_Mutante_4.pdb
REMARK  12 active torsions:
REMARK  status: ('A' for Active; 'I' for Inactive)
REMARK    1  A    between atoms: C1_1  and  C2_2
REMARK    2  A    between atoms: C2_2  and  C3_3
REMARK    3  A    between atoms: C3_3  and  C4_4
REMARK    4  A    between atoms: C4_4  and  C5_5
REMARK    5  A    between atoms: C4_4  and  C6_6
REMARK    6  A    between atoms: C6_6  and  C7_7
REMARK    7  A    between atoms: C7_7  and  C8_9
REMARK    8  A    between atoms: C9_10  and  C10_11
REMARK    9  A    between atoms: C13_14  and  C14_15
REMARK   10  A    between atoms: C16_18  and  C17_19
REMARK   11  A    between atoms: C19_21  and  C20_22
REMARK   12  A    between atoms: N2_23  and  O2_24
REMARK                            x       y       z     vdW  Elec       q    Type
REMARK                         _______ _______ _______ _____ _____    ______ ____
ROOT
ATOM      1  C8  UNL     1      -0.285   2.215  18.609  0.00  0.00    +0.000 C 
ATOM      2  C9  UNL     1      -0.187   2.876  17.226  0.00  0.00    +0.000 C 
ATOM      3  C10 UNL     1      -1.363   2.545  16.316  0.00  0.00    +0.000 C 
ATOM      4  C11 UNL     1       1.134   2.337  16.683  0.00  0.00    +0.000 C 
ATOM      5  C12 UNL     1       2.069   2.344  17.888  0.00  0.00    +0.000 C 
ATOM      6  C13 UNL     1       1.170   2.198  19.131  0.00  0.00    +0.000 C 
ENDROOT
BRANCH   6   7
ATOM      7  C14 UNL     1       1.499   1.028  20.034  0.00  0.00    +0.000 C 
ATOM      8  C15 UNL     1       1.021  -0.235  19.685  0.00  0.00    +0.000 C 
ATOM      9  N1  UNL     1       1.263  -1.377  20.369  0.00  0.00    +0.000 NA
ATOM     10  C16 UNL     1       2.044  -1.298  21.467  0.00  0.00    +0.000 C 
ATOM     11  C17 UNL     1       2.326  -2.570  22.209  0.00  0.00    +0.000 C 
ATOM     12  C18 UNL     1       2.571  -0.097  21.911  0.00  0.00    +0.000 C 
ATOM     13  C19 UNL     1       2.292   1.065  21.188  0.00  0.00    +0.000 C 
BRANCH  13  14
ATOM     14  C20 UNL     1       2.825   2.323  21.740  0.00  0.00    +0.000 C 
ATOM     15  N2  UNL     1       3.916   2.934  21.386  0.00  0.00    +0.000 NA
BRANCH  15  16
ATOM     16  O2  UNL     1       4.555   2.278  20.328  0.00  0.00    +0.000 OA
ATOM     17  H   UNL     1       5.119   1.550  20.501  0.00  0.00    +0.000 HD
ENDBRANCH  15  16
ENDBRANCH  13  14
ENDBRANCH   6   7
BRANCH   1  18
ATOM     18  C7  UNL     1      -1.279   2.938  19.517  0.00  0.00    +0.000 C 
ATOM     19  O1  UNL     1      -2.012   2.286  20.265  0.00  0.00    +0.000 OA
BRANCH  18  20
ATOM     20  C6  UNL     1      -1.348   4.459  19.477  0.00  0.00    +0.000 C 
BRANCH  20  21
ATOM     21  C4  UNL     1      -0.431   5.142  20.510  0.00  0.00    +0.000 C 
ATOM     22  C5  UNL     1      -1.266   5.929  21.526  0.00  0.00    +0.000 C 
BRANCH  21  23
ATOM     23  C3  UNL     1       0.579   6.047  19.775  0.00  0.00    +0.000 C 
BRANCH  23  25
ATOM     24  C1  UNL     1       2.644   6.354  21.187  0.00  0.00    +0.000 C 
ATOM     25  C2  UNL     1       2.038   5.638  19.990  0.00  0.00    +0.000 C 
ENDBRANCH  23  25
ENDBRANCH  21  23
ENDBRANCH  20  21
ENDBRANCH  18  20
ENDBRANCH   1  18
TORSDOF 8
ENDMDL
MODEL 4
REMARK VINA RESULT:    -5.845      2.479      5.535
REMARK INTER + INTRA:         -10.906
REMARK INTER:                  -9.186
REMARK INTRA:                  -1.720
REMARK UNBOUND:                -2.499
REMARK  Name = laboratorio_evolutivo\Gen4_Mutante_4.pdb
REMARK  12 active torsions:
REMARK  status: ('A' for Active; 'I' for Inactive)
REMARK    1  A    between atoms: C1_1  and  C2_2
REMARK    2  A    between atoms: C2_2  and  C3_3
REMARK    3  A    between atoms: C3_3  and  C4_4
REMARK    4  A    between atoms: C4_4  and  C5_5
REMARK    5  A    between atoms: C4_4  and  C6_6
REMARK    6  A    between atoms: C6_6  and  C7_7
REMARK    7  A    between atoms: C7_7  and  C8_9
REMARK    8  A    between atoms: C9_10  and  C10_11
REMARK    9  A    between atoms: C13_14  and  C14_15
REMARK   10  A    between atoms: C16_18  and  C17_19
REMARK   11  A    between atoms: C19_21  and  C20_22
REMARK   12  A    between atoms: N2_23  and  O2_24
REMARK                            x       y       z     vdW  Elec       q    Type
REMARK                         _______ _______ _______ _____ _____    ______ ____
ROOT
ATOM      1  C8  UNL     1       2.125   0.750  20.181  0.00  0.00    +0.000 C 
ATOM      2  C9  UNL     1       2.664   1.499  21.408  0.00  0.00    +0.000 C 
ATOM      3  C10 UNL     1       4.120   1.920  21.264  0.00  0.00    +0.000 C 
ATOM      4  C11 UNL     1       2.462   0.492  22.538  0.00  0.00    +0.000 C 
ATOM      5  C12 UNL     1       1.107  -0.142  22.241  0.00  0.00    +0.000 C 
ATOM      6  C13 UNL     1       0.909  -0.041  20.716  0.00  0.00    +0.000 C 
ENDROOT
BRANCH   6   7
ATOM      7  C14 UNL     1       0.655  -1.355  20.008  0.00  0.00    +0.000 C 
ATOM      8  C15 UNL     1       1.738  -2.201  19.770  0.00  0.00    +0.000 C 
ATOM      9  N1  UNL     1       1.663  -3.419  19.185  0.00  0.00    +0.000 NA
ATOM     10  C16 UNL     1       0.443  -3.865  18.817  0.00  0.00    +0.000 C 
ATOM     11  C17 UNL     1       0.363  -5.223  18.188  0.00  0.00    +0.000 C 
ATOM     12  C18 UNL     1      -0.703  -3.110  19.001  0.00  0.00    +0.000 C 
ATOM     13  C19 UNL     1      -0.589  -1.851  19.598  0.00  0.00    +0.000 C 
BRANCH  13  14
ATOM     14  C20 UNL     1      -1.830  -1.066  19.712  0.00  0.00    +0.000 C 
ATOM     15  N2  UNL     1      -2.655  -1.045  20.715  0.00  0.00    +0.000 NA
BRANCH  15  16
ATOM     16  O2  UNL     1      -2.205  -1.846  21.770  0.00  0.00    +0.000 OA
ATOM     17  H   UNL     1      -2.410  -1.614  22.655  0.00  0.00    +0.000 HD
ENDBRANCH  15  16
ENDBRANCH  13  14
ENDBRANCH   6   7
BRANCH   1  18
ATOM     18  C7  UNL     1       1.807   1.702  19.028  0.00  0.00    +0.000 C 
ATOM     19  O1  UNL     1       2.627   1.861  18.121  0.00  0.00    +0.000 OA
BRANCH  18  20
ATOM     20  C6  UNL     1       0.475   2.441  19.023  0.00  0.00    +0.000 C 
BRANCH  20  21
ATOM     21  C4  UNL     1       0.461   3.685  19.932  0.00  0.00    +0.000 C 
ATOM     22  C5  UNL     1      -0.932   4.326  19.940  0.00  0.00    +0.000 C 
BRANCH  21  23
ATOM     23  C3  UNL     1       1.544   4.676  19.455  0.00  0.00    +0.000 C 
BRANCH  23  25
ATOM     24  C1  UNL     1       2.245   6.628  20.887  0.00  0.00    +0.000 C 
ATOM     25  C2  UNL     1       2.472   5.157  20.573  0.00  0.00    +0.000 C 
ENDBRANCH  23  25
ENDBRANCH  21  23
ENDBRANCH  20  21
ENDBRANCH  18  20
ENDBRANCH   1  18
TORSDOF 8
ENDMDL
MODEL 5
REMARK VINA RESULT:    -5.732      2.395      4.860
REMARK INTER + INTRA:         -10.744
REMARK INTER:                  -8.821
REMARK INTRA:                  -1.923
REMARK UNBOUND:                -2.499
REMARK  Name = laboratorio_evolutivo\Gen4_Mutante_4.pdb
REMARK  12 active torsions:
REMARK  status: ('A' for Active; 'I' for Inactive)
REMARK    1  A    between atoms: C1_1  and  C2_2
REMARK    2  A    between atoms: C2_2  and  C3_3
REMARK    3  A    between atoms: C3_3  and  C4_4
REMARK    4  A    between atoms: C4_4  and  C5_5
REMARK    5  A    between atoms: C4_4  and  C6_6
REMARK    6  A    between atoms: C6_6  and  C7_7
REMARK    7  A    between atoms: C7_7  and  C8_9
REMARK    8  A    between atoms: C9_10  and  C10_11
REMARK    9  A    between atoms: C13_14  and  C14_15
REMARK   10  A    between atoms: C16_18  and  C17_19
REMARK   11  A    between atoms: C19_21  and  C20_22
REMARK   12  A    between atoms: N2_23  and  O2_24
REMARK                            x       y       z     vdW  Elec       q    Type
REMARK                         _______ _______ _______ _____ _____    ______ ____
ROOT
ATOM      1  C8  UNL     1       0.576   0.530  18.892  0.00  0.00    +0.000 C 
ATOM      2  C9  UNL     1       1.076   1.946  19.213  0.00  0.00    +0.000 C 
ATOM      3  C10 UNL     1      -0.050   2.927  19.514  0.00  0.00    +0.000 C 
ATOM      4  C11 UNL     1       1.855   2.327  17.957  0.00  0.00    +0.000 C 
ATOM      5  C12 UNL     1       2.589   1.049  17.566  0.00  0.00    +0.000 C 
ATOM      6  C13 UNL     1       1.739  -0.118  18.105  0.00  0.00    +0.000 C 
ENDROOT
BRANCH   6   7
ATOM      7  C14 UNL     1       1.306  -1.136  17.071  0.00  0.00    +0.000 C 
ATOM      8  C15 UNL     1       0.848  -0.674  15.837  0.00  0.00    +0.000 C 
ATOM      9  N1  UNL     1       0.463  -1.459  14.804  0.00  0.00    +0.000 NA
ATOM     10  C16 UNL     1       0.545  -2.797  14.967  0.00  0.00    +0.000 C 
ATOM     11  C17 UNL     1       0.138  -3.661  13.812  0.00  0.00    +0.000 C 
ATOM     12  C18 UNL     1       0.982  -3.369  16.150  0.00  0.00    +0.000 C 
ATOM     13  C19 UNL     1       1.360  -2.529  17.201  0.00  0.00    +0.000 C 
BRANCH  13  14
ATOM     14  C20 UNL     1       1.756  -3.190  18.456  0.00  0.00    +0.000 C 
ATOM     15  N2  UNL     1       2.880  -3.793  18.704  0.00  0.00    +0.000 NA
BRANCH  15  16
ATOM     16  O2  UNL     1       3.761  -3.708  17.621  0.00  0.00    +0.000 OA
ATOM     17  H   UNL     1       3.461  -3.379  16.797  0.00  0.00    +0.000 HD
ENDBRANCH  15  16
ENDBRANCH  13  14
ENDBRANCH   6   7
BRANCH   1  18
ATOM     18  C7  UNL     1       0.161  -0.228  20.152  0.00  0.00    +0.000 C 
ATOM     19  O1  UNL     1      -0.756  -1.051  20.098  0.00  0.00    +0.000 OA
BRANCH  18  20
ATOM     20  C6  UNL     1       0.890   0.054  21.460  0.00  0.00    +0.000 C 
BRANCH  20  21
ATOM     21  C4  UNL     1       2.305  -0.554  21.516  0.00  0.00    +0.000 C 
ATOM     22  C5  UNL     1       2.264  -1.943  22.163  0.00  0.00    +0.000 C 
BRANCH  21  23
ATOM     23  C3  UNL     1       3.241   0.405  22.281  0.00  0.00    +0.000 C 
BRANCH  23  25
ATOM     24  C1  UNL     1       3.751   2.874  22.243  0.00  0.00    +0.000 C 
ATOM     25  C2  UNL     1       3.734   1.583  21.438  0.00  0.00    +0.000 C 
ENDBRANCH  23  25
ENDBRANCH  21  23
ENDBRANCH  20  21
ENDBRANCH  18  20
ENDBRANCH   1  18
TORSDOF 8
ENDMDL
MODEL 6
REMARK VINA RESULT:    -5.713     22.521     25.333
REMARK INTER + INTRA:         -10.716
REMARK INTER:                  -8.727
REMARK INTRA:                  -1.989
REMARK UNBOUND:                -2.499
REMARK  Name = laboratorio_evolutivo\Gen4_Mutante_4.pdb
REMARK  12 active torsions:
REMARK  status: ('A' for Active; 'I' for Inactive)
REMARK    1  A    between atoms: C1_1  and  C2_2
REMARK    2  A    between atoms: C2_2  and  C3_3
REMARK    3  A    between atoms: C3_3  and  C4_4
REMARK    4  A    between atoms: C4_4  and  C5_5
REMARK    5  A    between atoms: C4_4  and  C6_6
REMARK    6  A    between atoms: C6_6  and  C7_7
REMARK    7  A    between atoms: C7_7  and  C8_9
REMARK    8  A    between atoms: C9_10  and  C10_11
REMARK    9  A    between atoms: C13_14  and  C14_15
REMARK   10  A    between atoms: C16_18  and  C17_19
REMARK   11  A    between atoms: C19_21  and  C20_22
REMARK   12  A    between atoms: N2_23  and  O2_24
REMARK                            x       y       z     vdW  Elec       q    Type
REMARK                         _______ _______ _______ _____ _____    ______ ____
ROOT
ATOM      1  C8  UNL     1      18.404  -7.908   2.440  0.00  0.00    +0.000 C 
ATOM      2  C9  UNL     1      19.737  -8.349   3.063  0.00  0.00    +0.000 C 
ATOM      3  C10 UNL     1      19.620  -8.719   4.536  0.00  0.00    +0.000 C 
ATOM      4  C11 UNL     1      20.636  -7.135   2.841  0.00  0.00    +0.000 C 
ATOM      5  C12 UNL     1      20.273  -6.647   1.443  0.00  0.00    +0.000 C 
ATOM      6  C13 UNL     1      18.814  -7.081   1.200  0.00  0.00    +0.000 C 
ENDROOT
BRANCH   6   7
ATOM      7  C14 UNL     1      17.856  -5.964   0.846  0.00  0.00    +0.000 C 
ATOM      8  C15 UNL     1      17.606  -4.977   1.800  0.00  0.00    +0.000 C 
ATOM      9  N1  UNL     1      16.807  -3.900   1.619  0.00  0.00    +0.000 NA
ATOM     10  C16 UNL     1      16.216  -3.753   0.414  0.00  0.00    +0.000 C 
ATOM     11  C17 UNL     1      15.350  -2.547   0.211  0.00  0.00    +0.000 C 
ATOM     12  C18 UNL     1      16.389  -4.671  -0.608  0.00  0.00    +0.000 C 
ATOM     13  C19 UNL     1      17.212  -5.778  -0.383  0.00  0.00    +0.000 C 
BRANCH  13  14
ATOM     14  C20 UNL     1      17.310  -6.754  -1.482  0.00  0.00    +0.000 C 
ATOM     15  N2  UNL     1      18.196  -6.780  -2.431  0.00  0.00    +0.000 NA
BRANCH  15  16
ATOM     16  O2  UNL     1      19.144  -5.762  -2.280  0.00  0.00    +0.000 OA
ATOM     17  H   UNL     1      19.960  -5.810  -2.737  0.00  0.00    +0.000 HD
ENDBRANCH  15  16
ENDBRANCH  13  14
ENDBRANCH   6   7
BRANCH   1  18
ATOM     18  C7  UNL     1      17.495  -9.099   2.139  0.00  0.00    +0.000 C 
ATOM     19  O1  UNL     1      17.852  -9.951   1.322  0.00  0.00    +0.000 OA
BRANCH  18  20
ATOM     20  C6  UNL     1      16.155  -9.208   2.857  0.00  0.00    +0.000 C 
BRANCH  20  21
ATOM     21  C4  UNL     1      14.968  -8.691   2.022  0.00  0.00    +0.000 C 
ATOM     22  C5  UNL     1      15.206  -8.960   0.532  0.00  0.00    +0.000 C 
BRANCH  21  23
ATOM     23  C3  UNL     1      14.762  -7.188   2.306  0.00  0.00    +0.000 C 
BRANCH  23  25
ATOM     24  C1  UNL     1      14.526  -5.385   4.052  0.00  0.00    +0.000 C 
ATOM     25  C2  UNL     1      15.007  -6.800   3.765  0.00  0.00    +0.000 C 
ENDBRANCH  23  25
ENDBRANCH  21  23
ENDBRANCH  20  21
ENDBRANCH  18  20
ENDBRANCH   1  18
TORSDOF 8
ENDMDL
MODEL 7
REMARK VINA RESULT:    -5.620      2.038      5.401
REMARK INTER + INTRA:         -10.583
REMARK INTER:                  -8.246
REMARK INTRA:                  -2.337
REMARK UNBOUND:                -2.499
REMARK  Name = laboratorio_evolutivo\Gen4_Mutante_4.pdb
REMARK  12 active torsions:
REMARK  status: ('A' for Active; 'I' for Inactive)
REMARK    1  A    between atoms: C1_1  and  C2_2
REMARK    2  A    between atoms: C2_2  and  C3_3
REMARK    3  A    between atoms: C3_3  and  C4_4
REMARK    4  A    between atoms: C4_4  and  C5_5
REMARK    5  A    between atoms: C4_4  and  C6_6
REMARK    6  A    between atoms: C6_6  and  C7_7
REMARK    7  A    between atoms: C7_7  and  C8_9
REMARK    8  A    between atoms: C9_10  and  C10_11
REMARK    9  A    between atoms: C13_14  and  C14_15
REMARK   10  A    between atoms: C16_18  and  C17_19
REMARK   11  A    between atoms: C19_21  and  C20_22
REMARK   12  A    between atoms: N2_23  and  O2_24
REMARK                            x       y       z     vdW  Elec       q    Type
REMARK                         _______ _______ _______ _____ _____    ______ ____
ROOT
ATOM      1  C8  UNL     1      -0.278   2.274  18.921  0.00  0.00    +0.000 C 
ATOM      2  C9  UNL     1      -1.636   2.953  18.687  0.00  0.00    +0.000 C 
ATOM      3  C10 UNL     1      -1.698   4.376  19.228  0.00  0.00    +0.000 C 
ATOM      4  C11 UNL     1      -2.612   2.020  19.399  0.00  0.00    +0.000 C 
ATOM      5  C12 UNL     1      -2.100   0.620  19.075  0.00  0.00    +0.000 C 
ATOM      6  C13 UNL     1      -0.585   0.761  18.831  0.00  0.00    +0.000 C 
ENDROOT
BRANCH   6   7
ATOM      7  C14 UNL     1       0.295  -0.109  19.703  0.00  0.00    +0.000 C 
ATOM      8  C15 UNL     1       0.180   0.006  21.088  0.00  0.00    +0.000 C 
ATOM      9  N1  UNL     1       0.868  -0.728  21.992  0.00  0.00    +0.000 NA
ATOM     10  C16 UNL     1       1.723  -1.662  21.523  0.00  0.00    +0.000 C 
ATOM     11  C17 UNL     1       2.467  -2.486  22.529  0.00  0.00    +0.000 C 
ATOM     12  C18 UNL     1       1.923  -1.863  20.168  0.00  0.00    +0.000 C 
ATOM     13  C19 UNL     1       1.204  -1.079  19.261  0.00  0.00    +0.000 C 
BRANCH  13  14
ATOM     14  C20 UNL     1       1.501  -1.292  17.834  0.00  0.00    +0.000 C 
ATOM     15  N2  UNL     1       0.871  -2.075  17.011  0.00  0.00    +0.000 NA
BRANCH  15  16
ATOM     16  O2  UNL     1      -0.219  -2.702  17.625  0.00  0.00    +0.000 OA
ATOM     17  H   UNL     1      -0.076  -3.336  18.299  0.00  0.00    +0.000 HD
ENDBRANCH  15  16
ENDBRANCH  13  14
ENDBRANCH   6   7
BRANCH   1  18
ATOM     18  C7  UNL     1       0.783   2.768  17.938  0.00  0.00    +0.000 C 
ATOM     19  O1  UNL     1       0.589   2.664  16.724  0.00  0.00    +0.000 OA
BRANCH  18  20
ATOM     20  C6  UNL     1       2.068   3.380  18.481  0.00  0.00    +0.000 C 
BRANCH  20  21
ATOM     21  C4  UNL     1       1.887   4.082  19.840  0.00  0.00    +0.000 C 
ATOM     22  C5  UNL     1       2.058   5.597  19.686  0.00  0.00    +0.000 C 
BRANCH  21  23
ATOM     23  C3  UNL     1       2.889   3.493  20.855  0.00  0.00    +0.000 C 
BRANCH  23  25
ATOM     24  C1  UNL     1       3.826   1.363  21.825  0.00  0.00    +0.000 C 
ATOM     25  C2  UNL     1       3.247   2.030  20.586  0.00  0.00    +0.000 C 
ENDBRANCH  23  25
ENDBRANCH  21  23
ENDBRANCH  20  21
ENDBRANCH  18  20
ENDBRANCH   1  18
TORSDOF 8
ENDMDL
MODEL 8
REMARK VINA RESULT:    -5.533      2.156      4.692
REMARK INTER + INTRA:         -10.457
REMARK INTER:                  -8.320
REMARK INTRA:                  -2.137
REMARK UNBOUND:                -2.499
REMARK  Name = laboratorio_evolutivo\Gen4_Mutante_4.pdb
REMARK  12 active torsions:
REMARK  status: ('A' for Active; 'I' for Inactive)
REMARK    1  A    between atoms: C1_1  and  C2_2
REMARK    2  A    between atoms: C2_2  and  C3_3
REMARK    3  A    between atoms: C3_3  and  C4_4
REMARK    4  A    between atoms: C4_4  and  C5_5
REMARK    5  A    between atoms: C4_4  and  C6_6
REMARK    6  A    between atoms: C6_6  and  C7_7
REMARK    7  A    between atoms: C7_7  and  C8_9
REMARK    8  A    between atoms: C9_10  and  C10_11
REMARK    9  A    between atoms: C13_14  and  C14_15
REMARK   10  A    between atoms: C16_18  and  C17_19
REMARK   11  A    between atoms: C19_21  and  C20_22
REMARK   12  A    between atoms: N2_23  and  O2_24
REMARK                            x       y       z     vdW  Elec       q    Type
REMARK                         _______ _______ _______ _____ _____    ______ ____
ROOT
ATOM      1  C8  UNL     1      -0.291  -0.620  20.792  0.00  0.00    +0.000 C 
ATOM      2  C9  UNL     1      -0.491  -2.139  20.701  0.00  0.00    +0.000 C 
ATOM      3  C10 UNL     1      -1.735  -2.627  21.432  0.00  0.00    +0.000 C 
ATOM      4  C11 UNL     1       0.793  -2.691  21.314  0.00  0.00    +0.000 C 
ATOM      5  C12 UNL     1       1.889  -1.771  20.785  0.00  0.00    +0.000 C 
ATOM      6  C13 UNL     1       1.215  -0.413  20.508  0.00  0.00    +0.000 C 
ENDROOT
BRANCH   6   7
ATOM      7  C14 UNL     1       1.831   0.772  21.222  0.00  0.00    +0.000 C 
ATOM      8  C15 UNL     1       2.360   0.577  22.497  0.00  0.00    +0.000 C 
ATOM      9  N1  UNL     1       2.973   1.527  23.241  0.00  0.00    +0.000 NA
ATOM     10  C16 UNL     1       3.104   2.759  22.704  0.00  0.00    +0.000 C 
ATOM     11  C17 UNL     1       3.803   3.801  23.523  0.00  0.00    +0.000 C 
ATOM     12  C18 UNL     1       2.614   3.069  21.446  0.00  0.00    +0.000 C 
ATOM     13  C19 UNL     1       1.975   2.068  20.710  0.00  0.00    +0.000 C 
BRANCH  13  14
ATOM     14  C20 UNL     1       1.418   2.468  19.406  0.00  0.00    +0.000 C 
ATOM     15  N2  UNL     1       2.051   2.544  18.274  0.00  0.00    +0.000 NA
BRANCH  15  16
ATOM     16  O2  UNL     1       3.382   2.134  18.397  0.00  0.00    +0.000 OA
ATOM     17  H   UNL     1       3.589   1.222  18.453  0.00  0.00    +0.000 HD
ENDBRANCH  15  16
ENDBRANCH  13  14
ENDBRANCH   6   7
BRANCH   1  18
ATOM     18  C7  UNL     1      -1.225   0.136  19.847  0.00  0.00    +0.000 C 
ATOM     19  O1  UNL     1      -1.802   1.152  20.241  0.00  0.00    +0.000 OA
BRANCH  18  20
ATOM     20  C6  UNL     1      -1.429  -0.387  18.431  0.00  0.00    +0.000 C 
BRANCH  20  21
ATOM     21  C4  UNL     1      -0.870   0.551  17.344  0.00  0.00    +0.000 C 
ATOM     22  C5  UNL     1      -2.016   1.216  16.573  0.00  0.00    +0.000 C 
BRANCH  21  23
ATOM     23  C3  UNL     1       0.062  -0.248  16.410  0.00  0.00    +0.000 C 
BRANCH  23  25
ATOM     24  C1  UNL     1       2.435  -0.952  16.882  0.00  0.00    +0.000 C 
ATOM     25  C2  UNL     1       0.965  -1.240  17.146  0.00  0.00    +0.000 C 
ENDBRANCH  23  25
ENDBRANCH  21  23
ENDBRANCH  20  21
ENDBRANCH  18  20
ENDBRANCH   1  18
TORSDOF 8
ENDMDL
MODEL 9
REMARK VINA RESULT:    -5.351      2.266      4.011
REMARK INTER + INTRA:         -10.197
REMARK INTER:                  -8.417
REMARK INTRA:                  -1.779
REMARK UNBOUND:                -2.499
REMARK  Name = laboratorio_evolutivo\Gen4_Mutante_4.pdb
REMARK  12 active torsions:
REMARK  status: ('A' for Active; 'I' for Inactive)
REMARK    1  A    between atoms: C1_1  and  C2_2
REMARK    2  A    between atoms: C2_2  and  C3_3
REMARK    3  A    between atoms: C3_3  and  C4_4
REMARK    4  A    between atoms: C4_4  and  C5_5
REMARK    5  A    between atoms: C4_4  and  C6_6
REMARK    6  A    between atoms: C6_6  and  C7_7
REMARK    7  A    between atoms: C7_7  and  C8_9
REMARK    8  A    between atoms: C9_10  and  C10_11
REMARK    9  A    between atoms: C13_14  and  C14_15
REMARK   10  A    between atoms: C16_18  and  C17_19
REMARK   11  A    between atoms: C19_21  and  C20_22
REMARK   12  A    between atoms: N2_23  and  O2_24
REMARK                            x       y       z     vdW  Elec       q    Type
REMARK                         _______ _______ _______ _____ _____    ______ ____
ROOT
ATOM      1  C8  UNL     1       0.232  -1.882  19.741  0.00  0.00    +0.000 C 
ATOM      2  C9  UNL     1       0.398  -2.857  18.567  0.00  0.00    +0.000 C 
ATOM      3  C10 UNL     1       0.381  -4.320  18.992  0.00  0.00    +0.000 C 
ATOM      4  C11 UNL     1       1.739  -2.445  17.967  0.00  0.00    +0.000 C 
ATOM      5  C12 UNL     1       1.732  -0.922  18.036  0.00  0.00    +0.000 C 
ATOM      6  C13 UNL     1       0.816  -0.549  19.219  0.00  0.00    +0.000 C 
ENDROOT
BRANCH   6   7
ATOM      7  C14 UNL     1       1.455   0.316  20.285  0.00  0.00    +0.000 C 
ATOM      8  C15 UNL     1       1.900  -0.295  21.457  0.00  0.00    +0.000 C 
ATOM      9  N1  UNL     1       2.522   0.337  22.479  0.00  0.00    +0.000 NA
ATOM     10  C16 UNL     1       2.751   1.662  22.352  0.00  0.00    +0.000 C 
ATOM     11  C17 UNL     1       3.459   2.353  23.477  0.00  0.00    +0.000 C 
ATOM     12  C18 UNL     1       2.350   2.374  21.234  0.00  0.00    +0.000 C 
ATOM     13  C19 UNL     1       1.700   1.693  20.202  0.00  0.00    +0.000 C 
BRANCH  13  14
ATOM     14  C20 UNL     1       1.241   2.510  19.066  0.00  0.00    +0.000 C 
ATOM     15  N2  UNL     1       1.928   2.851  18.017  0.00  0.00    +0.000 NA
BRANCH  15  16
ATOM     16  O2  UNL     1       3.211   2.294  18.037  0.00  0.00    +0.000 OA
ATOM     17  H   UNL     1       3.743   2.370  18.805  0.00  0.00    +0.000 HD
ENDBRANCH  15  16
ENDBRANCH  13  14
ENDBRANCH   6   7
BRANCH   1  18
ATOM     18  C7  UNL     1      -1.219  -1.799  20.213  0.00  0.00    +0.000 C 
ATOM     19  O1  UNL     1      -1.543  -2.304  21.290  0.00  0.00    +0.000 OA
BRANCH  18  20
ATOM     20  C6  UNL     1      -2.244  -1.092  19.335  0.00  0.00    +0.000 C 
BRANCH  20  21
ATOM     21  C4  UNL     1      -3.532  -0.704  20.087  0.00  0.00    +0.000 C 
ATOM     22  C5  UNL     1      -4.767  -1.092  19.266  0.00  0.00    +0.000 C 
BRANCH  21  23
ATOM     23  C3  UNL     1      -3.504   0.807  20.399  0.00  0.00    +0.000 C 
BRANCH  23  25
ATOM     24  C1  UNL     1      -2.205   2.956  20.185  0.00  0.00    +0.000 C 
ATOM     25  C2  UNL     1      -2.467   1.583  19.585  0.00  0.00    +0.000 C 
ENDBRANCH  23  25
ENDBRANCH  21  23
ENDBRANCH  20  21
ENDBRANCH  18  20
ENDBRANCH   1  18
TORSDOF 8
ENDMDL
