REMARK  Name = laboratorio_evolutivo\Gen4_Mutante_2.pdb
REMARK  12 active torsions:
REMARK  status: ('A' for Active; 'I' for Inactive)
REMARK    1  A    between atoms: C1_1  and  C2_2
REMARK    2  A    between atoms: C4_4  and  C5_5
REMARK    3  A    between atoms: N1_6  and  O1_7
REMARK    4  A    between atoms: C6_8  and  C7_9
REMARK    5  A    between atoms: C10_12  and  C11_13
REMARK    6  A    between atoms: C12_14  and  C13_15
REMARK    7  A    between atoms: C13_15  and  C14_17
REMARK    8  A    between atoms: C14_17  and  C15_18
REMARK    9  A    between atoms: C15_18  and  C16_19
REMARK   10  A    between atoms: C15_18  and  C17_20
REMARK   11  A    between atoms: C17_20  and  C18_21
REMARK   12  A    between atoms: C17_20  and  C19_22
REMARK                            x       y       z     vdW  Elec       q    Type
REMARK                         _______ _______ _______ _____ _____    ______ ____
ROOT
ATOM      1  C7  UNL     1       1.549  -0.039  -1.863  0.00  0.00    +0.000 C 
ATOM      2  C8  UNL     1       1.731  -1.293  -2.748  0.00  0.00    +0.000 C 
ATOM      3  C9  UNL     1       0.627  -1.221  -3.811  0.00  0.00    +0.000 C 
ATOM      4  C10 UNL     1      -0.230   0.001  -3.459  0.00  0.00    +0.000 C 
ATOM      5  C11 UNL     1      -1.692  -0.147  -3.848  0.00  0.00    +0.000 C 
ATOM      6  C12 UNL     1       0.043   0.266  -1.970  0.00  0.00    +0.000 C 
ENDROOT
BRANCH   1  11
ATOM      7  C1  UNL     1       3.707  -0.412   3.507  0.00  0.00    +0.000 C 
ATOM      8  C2  UNL     1       3.151  -0.264   2.123  0.00  0.00    +0.000 C 
ATOM      9  C3  UNL     1       3.117   0.975   1.507  0.00  0.00    +0.000 C 
ATOM     10  C4  UNL     1       2.584   1.083   0.214  0.00  0.00    +0.000 C 
ATOM     11  C6  UNL     1       2.113  -0.060  -0.460  0.00  0.00    +0.000 C 
ATOM     12  C20 UNL     1       2.185  -1.249   0.266  0.00  0.00    +0.000 C 
ATOM     13  N2  UNL     1       2.685  -1.372   1.519  0.00  0.00    +0.000 NA
BRANCH  10  14
ATOM     14  C5  UNL     1       2.568   2.465  -0.321  0.00  0.00    +0.000 C 
ATOM     15  N1  UNL     1       1.845   2.847  -1.324  0.00  0.00    +0.000 NA
BRANCH  15  16
ATOM     16  O1  UNL     1       2.059   4.212  -1.543  0.00  0.00    +0.000 OA
ATOM     17  H   UNL     1       1.609   4.651  -2.238  0.00  0.00    +0.000 HD
ENDBRANCH  15  16
ENDBRANCH  10  14
ENDBRANCH   1  11
BRANCH   6  18
ATOM     18  C13 UNL     1      -0.799  -0.592  -1.021  0.00  0.00    +0.000 C 
ATOM     19  O2  UNL     1      -0.889  -1.812  -1.159  0.00  0.00    +0.000 OA
BRANCH  18  20
ATOM     20  C14 UNL     1      -1.512   0.161   0.096  0.00  0.00    +0.000 C 
BRANCH  20  21
ATOM     21  C15 UNL     1      -2.243  -0.746   1.107  0.00  0.00    +0.000 C 
ATOM     22  C16 UNL     1      -1.233  -1.444   2.028  0.00  0.00    +0.000 C 
BRANCH  21  23
ATOM     23  C17 UNL     1      -3.328   0.055   1.884  0.00  0.00    +0.000 C 
ATOM     24  C18 UNL     1      -4.224  -0.862   2.725  0.00  0.00    +0.000 C 
ATOM     25  C19 UNL     1      -2.763   1.171   2.766  0.00  0.00    +0.000 C 
ENDBRANCH  21  23
ENDBRANCH  20  21
ENDBRANCH  18  20
ENDBRANCH   6  18
TORSDOF 7
