MODEL 1
REMARK VINA RESULT:    -6.628      0.000      0.000
REMARK INTER + INTRA:         -11.767
REMARK INTER:                  -9.534
REMARK INTRA:                  -2.233
REMARK UNBOUND:                -2.233
REMARK  Name = laboratorio_evolutivo\Gen4_Mutante_3.pdb
REMARK  12 active torsions:
REMARK  status: ('A' for Active; 'I' for Inactive)
REMARK    1  A    between atoms: C1_1  and  C2_2
REMARK    2  A    between atoms: C2_2  and  C3_3
REMARK    3  A    between atoms: C3_3  and  C4_4
REMARK    4  A    between atoms: C3_3  and  C6_6
REMARK    5  A    between atoms: C4_4  and  C5_5
REMARK    6  A    between atoms: C6_6  and  C7_7
REMARK    7  A    between atoms: C7_7  and  C8_9
REMARK    8  A    between atoms: C9_10  and  C10_11
REMARK    9  A    between atoms: C13_14  and  C14_15
REMARK   10  A    between atoms: C16_18  and  C17_19
REMARK   11  A    between atoms: C19_21  and  C20_22
REMARK   12  A    between atoms: N2_23  and  O2_24
REMARK                            x       y       z     vdW  Elec       q    Type
REMARK                         _______ _______ _______ _____ _____    ______ ____
ROOT
ATOM      1  C8  UNL     1       0.584   1.738  19.371  0.00  0.00    +0.000 C 
ATOM      2  C9  UNL     1       0.388   2.003  17.871  0.00  0.00    +0.000 C 
ATOM      3  C10 UNL     1      -0.990   2.553  17.532  0.00  0.00    +0.000 C 
ATOM      4  C11 UNL     1       1.505   2.992  17.550  0.00  0.00    +0.000 C 
ATOM      5  C12 UNL     1       2.699   2.480  18.348  0.00  0.00    +0.000 C 
ATOM      6  C13 UNL     1       2.116   1.732  19.566  0.00  0.00    +0.000 C 
ENDROOT
BRANCH   6   7
ATOM      7  C14 UNL     1       2.564   2.230  20.924  0.00  0.00    +0.000 C 
ATOM      8  C15 UNL     1       2.690   3.606  21.113  0.00  0.00    +0.000 C 
ATOM      9  N1  UNL     1       3.055   4.207  22.269  0.00  0.00    +0.000 NA
ATOM     10  C16 UNL     1       3.322   3.416  23.329  0.00  0.00    +0.000 C 
ATOM     11  C17 UNL     1       3.725   4.084  24.607  0.00  0.00    +0.000 C 
ATOM     12  C18 UNL     1       3.242   2.035  23.256  0.00  0.00    +0.000 C 
ATOM     13  C19 UNL     1       2.858   1.445  22.047  0.00  0.00    +0.000 C 
BRANCH  13  14
ATOM     14  C20 UNL     1       2.853  -0.029  22.003  0.00  0.00    +0.000 C 
ATOM     15  N2  UNL     1       1.962  -0.835  22.502  0.00  0.00    +0.000 NA
BRANCH  15  16
ATOM     16  O2  UNL     1       0.888  -0.144  23.073  0.00  0.00    +0.000 OA
ATOM     17  H   UNL     1       0.941   0.154  23.960  0.00  0.00    +0.000 HD
ENDBRANCH  15  16
ENDBRANCH  13  14
ENDBRANCH   6   7
BRANCH   1  18
ATOM     18  C7  UNL     1      -0.114   0.462  19.838  0.00  0.00    +0.000 C 
ATOM     19  O1  UNL     1      -0.671   0.445  20.937  0.00  0.00    +0.000 OA
BRANCH  18  20
ATOM     20  C6  UNL     1      -0.084  -0.772  18.945  0.00  0.00    +0.000 C 
BRANCH  20  21
ATOM     21  C3  UNL     1       1.335  -1.336  18.722  0.00  0.00    +0.000 C 
BRANCH  21  23
ATOM     22  C1  UNL     1       2.839  -0.827  16.703  0.00  0.00    +0.000 C 
ATOM     23  C2  UNL     1       1.576  -1.512  17.208  0.00  0.00    +0.000 C 
ENDBRANCH  21  23
BRANCH  21  24
ATOM     24  C4  UNL     1       1.597  -2.618  19.545  0.00  0.00    +0.000 C 
ATOM     25  C5  UNL     1       0.363  -3.277  20.147  0.00  0.00    +0.000 C 
ENDBRANCH  21  24
ENDBRANCH  20  21
ENDBRANCH  18  20
ENDBRANCH   1  18
TORSDOF 8
ENDMDL
MODEL 2
REMARK VINA RESULT:    -6.370     24.433     26.654
REMARK INTER + INTRA:         -11.397
REMARK INTER:                  -9.219
REMARK INTRA:                  -2.178
REMARK UNBOUND:                -2.233
REMARK  Name = laboratorio_evolutivo\Gen4_Mutante_3.pdb
REMARK  12 active torsions:
REMARK  status: ('A' for Active; 'I' for Inactive)
REMARK    1  A    between atoms: C1_1  and  C2_2
REMARK    2  A    between atoms: C2_2  and  C3_3
REMARK    3  A    between atoms: C3_3  and  C4_4
REMARK    4  A    between atoms: C3_3  and  C6_6
REMARK    5  A    between atoms: C4_4  and  C5_5
REMARK    6  A    between atoms: C6_6  and  C7_7
REMARK    7  A    between atoms: C7_7  and  C8_9
REMARK    8  A    between atoms: C9_10  and  C10_11
REMARK    9  A    between atoms: C13_14  and  C14_15
REMARK   10  A    between atoms: C16_18  and  C17_19
REMARK   11  A    between atoms: C19_21  and  C20_22
REMARK   12  A    between atoms: N2_23  and  O2_24
REMARK                            x       y       z     vdW  Elec       q    Type
REMARK                         _______ _______ _______ _____ _____    ______ ____
ROOT
ATOM      1  C8  UNL     1      17.472  -9.156   1.425  0.00  0.00    +0.000 C 
ATOM      2  C9  UNL     1      16.038  -9.698   1.511  0.00  0.00    +0.000 C 
ATOM      3  C10 UNL     1      15.645 -10.555   0.316  0.00  0.00    +0.000 C 
ATOM      4  C11 UNL     1      16.048 -10.487   2.817  0.00  0.00    +0.000 C 
ATOM      5  C12 UNL     1      16.873  -9.627   3.768  0.00  0.00    +0.000 C 
ATOM      6  C13 UNL     1      17.847  -8.818   2.884  0.00  0.00    +0.000 C 
ENDROOT
BRANCH   6   7
ATOM      7  C14 UNL     1      19.319  -8.988   3.197  0.00  0.00    +0.000 C 
ATOM      8  C15 UNL     1      19.772 -10.254   3.565  0.00  0.00    +0.000 C 
ATOM      9  N1  UNL     1      21.056 -10.573   3.851  0.00  0.00    +0.000 NA
ATOM     10  C16 UNL     1      21.977  -9.590   3.776  0.00  0.00    +0.000 C 
ATOM     11  C17 UNL     1      23.397  -9.946   4.092  0.00  0.00    +0.000 C 
ATOM     12  C18 UNL     1      21.641  -8.291   3.431  0.00  0.00    +0.000 C 
ATOM     13  C19 UNL     1      20.306  -7.995   3.138  0.00  0.00    +0.000 C 
BRANCH  13  14
ATOM     14  C20 UNL     1      19.990  -6.585   2.843  0.00  0.00    +0.000 C 
ATOM     15  N2  UNL     1      20.241  -5.928   1.749  0.00  0.00    +0.000 NA
BRANCH  15  16
ATOM     16  O2  UNL     1      20.821  -6.740   0.768  0.00  0.00    +0.000 OA
ATOM     17  H   UNL     1      21.349  -7.473   1.018  0.00  0.00    +0.000 HD
ENDBRANCH  15  16
ENDBRANCH  13  14
ENDBRANCH   6   7
BRANCH   1  18
ATOM     18  C7  UNL     1      17.600  -7.983   0.456  0.00  0.00    +0.000 C 
ATOM     19  O1  UNL     1      18.560  -7.937  -0.316  0.00  0.00    +0.000 OA
BRANCH  18  20
ATOM     20  C6  UNL     1      16.551  -6.878   0.482  0.00  0.00    +0.000 C 
BRANCH  20  21
ATOM     21  C3  UNL     1      16.620  -5.994   1.744  0.00  0.00    +0.000 C 
BRANCH  21  23
ATOM     22  C1  UNL     1      14.119  -6.579   1.761  0.00  0.00    +0.000 C 
ATOM     23  C2  UNL     1      15.346  -6.216   2.587  0.00  0.00    +0.000 C 
ENDBRANCH  21  23
BRANCH  21  24
ATOM     24  C4  UNL     1      16.892  -4.509   1.411  0.00  0.00    +0.000 C 
ATOM     25  C5  UNL     1      16.679  -3.528   2.556  0.00  0.00    +0.000 C 
ENDBRANCH  21  24
ENDBRANCH  20  21
ENDBRANCH  18  20
ENDBRANCH   1  18
TORSDOF 8
ENDMDL
MODEL 3
REMARK VINA RESULT:    -5.895      2.520      5.597
REMARK INTER + INTRA:         -10.713
REMARK INTER:                  -8.214
REMARK INTRA:                  -2.500
REMARK UNBOUND:                -2.233
REMARK  Name = laboratorio_evolutivo\Gen4_Mutante_3.pdb
REMARK  12 active torsions:
REMARK  status: ('A' for Active; 'I' for Inactive)
REMARK    1  A    between atoms: C1_1  and  C2_2
REMARK    2  A    between atoms: C2_2  and  C3_3
REMARK    3  A    between atoms: C3_3  and  C4_4
REMARK    4  A    between atoms: C3_3  and  C6_6
REMARK    5  A    between atoms: C4_4  and  C5_5
REMARK    6  A    between atoms: C6_6  and  C7_7
REMARK    7  A    between atoms: C7_7  and  C8_9
REMARK    8  A    between atoms: C9_10  and  C10_11
REMARK    9  A    between atoms: C13_14  and  C14_15
REMARK   10  A    between atoms: C16_18  and  C17_19
REMARK   11  A    between atoms: C19_21  and  C20_22
REMARK   12  A    between atoms: N2_23  and  O2_24
REMARK                            x       y       z     vdW  Elec       q    Type
REMARK                         _______ _______ _______ _____ _____    ______ ____
ROOT
ATOM      1  C8  UNL     1       1.080   0.517  19.230  0.00  0.00    +0.000 C 
ATOM      2  C9  UNL     1       1.362   1.858  18.537  0.00  0.00    +0.000 C 
ATOM      3  C10 UNL     1       2.517   2.628  19.162  0.00  0.00    +0.000 C 
ATOM      4  C11 UNL     1       1.647   1.445  17.096  0.00  0.00    +0.000 C 
ATOM      5  C12 UNL     1       0.631   0.344  16.814  0.00  0.00    +0.000 C 
ATOM      6  C13 UNL     1       0.314  -0.311  18.176  0.00  0.00    +0.000 C 
ENDROOT
BRANCH   6   7
ATOM      7  C14 UNL     1       0.562  -1.802  18.265  0.00  0.00    +0.000 C 
ATOM      8  C15 UNL     1       1.800  -2.290  17.850  0.00  0.00    +0.000 C 
ATOM      9  N1  UNL     1       2.183  -3.587  17.890  0.00  0.00    +0.000 NA
ATOM     10  C16 UNL     1       1.299  -4.487  18.369  0.00  0.00    +0.000 C 
ATOM     11  C17 UNL     1       1.726  -5.922  18.412  0.00  0.00    +0.000 C 
ATOM     12  C18 UNL     1       0.035  -4.119  18.799  0.00  0.00    +0.000 C 
ATOM     13  C19 UNL     1      -0.329  -2.770  18.748  0.00  0.00    +0.000 C 
BRANCH  13  14
ATOM     14  C20 UNL     1      -1.708  -2.440  19.154  0.00  0.00    +0.000 C 
ATOM     15  N2  UNL     1      -2.141  -2.179  20.353  0.00  0.00    +0.000 NA
BRANCH  15  16
ATOM     16  O2  UNL     1      -1.107  -2.168  21.296  0.00  0.00    +0.000 OA
ATOM     17  H   UNL     1      -0.950  -1.400  21.809  0.00  0.00    +0.000 HD
ENDBRANCH  15  16
ENDBRANCH  13  14
ENDBRANCH   6   7
BRANCH   1  18
ATOM     18  C7  UNL     1       0.341   0.684  20.556  0.00  0.00    +0.000 C 
ATOM     19  O1  UNL     1      -0.870   0.916  20.549  0.00  0.00    +0.000 OA
BRANCH  18  20
ATOM     20  C6  UNL     1       1.121   0.587  21.861  0.00  0.00    +0.000 C 
BRANCH  20  21
ATOM     21  C3  UNL     1       2.489  -0.111  21.708  0.00  0.00    +0.000 C 
BRANCH  21  23
ATOM     22  C1  UNL     1       2.306  -2.664  21.493  0.00  0.00    +0.000 C 
ATOM     23  C2  UNL     1       2.445  -1.473  22.432  0.00  0.00    +0.000 C 
ENDBRANCH  21  23
BRANCH  21  24
ATOM     24  C4  UNL     1       3.664   0.790  22.153  0.00  0.00    +0.000 C 
ATOM     25  C5  UNL     1       3.272   2.092  22.838  0.00  0.00    +0.000 C 
ENDBRANCH  21  24
ENDBRANCH  20  21
ENDBRANCH  18  20
ENDBRANCH   1  18
TORSDOF 8
ENDMDL
MODEL 4
REMARK VINA RESULT:    -5.814     23.121     26.108
REMARK INTER + INTRA:         -10.596
REMARK INTER:                  -8.806
REMARK INTRA:                  -1.789
REMARK UNBOUND:                -2.233
REMARK  Name = laboratorio_evolutivo\Gen4_Mutante_3.pdb
REMARK  12 active torsions:
REMARK  status: ('A' for Active; 'I' for Inactive)
REMARK    1  A    between atoms: C1_1  and  C2_2
REMARK    2  A    between atoms: C2_2  and  C3_3
REMARK    3  A    between atoms: C3_3  and  C4_4
REMARK    4  A    between atoms: C3_3  and  C6_6
REMARK    5  A    between atoms: C4_4  and  C5_5
REMARK    6  A    between atoms: C6_6  and  C7_7
REMARK    7  A    between atoms: C7_7  and  C8_9
REMARK    8  A    between atoms: C9_10  and  C10_11
REMARK    9  A    between atoms: C13_14  and  C14_15
REMARK   10  A    between atoms: C16_18  and  C17_19
REMARK   11  A    between atoms: C19_21  and  C20_22
REMARK   12  A    between atoms: N2_23  and  O2_24
REMARK                            x       y       z     vdW  Elec       q    Type
REMARK                         _______ _______ _______ _____ _____    ______ ____
ROOT
ATOM      1  C8  UNL     1      18.432  -5.831   0.649  0.00  0.00    +0.000 C 
ATOM      2  C9  UNL     1      17.929  -5.566  -0.777  0.00  0.00    +0.000 C 
ATOM      3  C10 UNL     1      18.577  -4.352  -1.428  0.00  0.00    +0.000 C 
ATOM      4  C11 UNL     1      18.261  -6.865  -1.504  0.00  0.00    +0.000 C 
ATOM      5  C12 UNL     1      17.930  -7.956  -0.492  0.00  0.00    +0.000 C 
ATOM      6  C13 UNL     1      18.110  -7.320   0.903  0.00  0.00    +0.000 C 
ENDROOT
BRANCH   6   7
ATOM      7  C14 UNL     1      19.091  -8.014   1.824  0.00  0.00    +0.000 C 
ATOM      8  C15 UNL     1      20.344  -7.431   2.011  0.00  0.00    +0.000 C 
ATOM      9  N1  UNL     1      21.318  -7.913   2.817  0.00  0.00    +0.000 NA
ATOM     10  C16 UNL     1      21.063  -9.049   3.498  0.00  0.00    +0.000 C 
ATOM     11  C17 UNL     1      22.143  -9.579   4.390  0.00  0.00    +0.000 C 
ATOM     12  C18 UNL     1      19.858  -9.722   3.382  0.00  0.00    +0.000 C 
ATOM     13  C19 UNL     1      18.870  -9.196   2.543  0.00  0.00    +0.000 C 
BRANCH  13  14
ATOM     14  C20 UNL     1      17.632  -9.986   2.403  0.00  0.00    +0.000 C 
ATOM     15  N2  UNL     1      16.653 -10.083   3.254  0.00  0.00    +0.000 NA
BRANCH  15  16
ATOM     16  O2  UNL     1      16.845  -9.267   4.374  0.00  0.00    +0.000 OA
ATOM     17  H   UNL     1      16.886  -9.648   5.229  0.00  0.00    +0.000 HD
ENDBRANCH  15  16
ENDBRANCH  13  14
ENDBRANCH   6   7
BRANCH   1  18
ATOM     18  C7  UNL     1      17.827  -4.874   1.674  0.00  0.00    +0.000 C 
ATOM     19  O1  UNL     1      18.568  -4.290   2.467  0.00  0.00    +0.000 OA
BRANCH  18  20
ATOM     20  C6  UNL     1      16.317  -4.681   1.712  0.00  0.00    +0.000 C 
BRANCH  20  21
ATOM     21  C3  UNL     1      15.614  -5.531   2.792  0.00  0.00    +0.000 C 
BRANCH  21  23
ATOM     22  C1  UNL     1      14.517  -6.519   0.690  0.00  0.00    +0.000 C 
ATOM     23  C2  UNL     1      14.969  -6.763   2.124  0.00  0.00    +0.000 C 
ENDBRANCH  21  23
BRANCH  21  24
ATOM     24  C4  UNL     1      14.629  -4.702   3.647  0.00  0.00    +0.000 C 
ATOM     25  C5  UNL     1      13.371  -5.433   4.096  0.00  0.00    +0.000 C 
ENDBRANCH  21  24
ENDBRANCH  20  21
ENDBRANCH  18  20
ENDBRANCH   1  18
TORSDOF 8
ENDMDL
MODEL 5
REMARK VINA RESULT:    -5.783      2.315      5.873
REMARK INTER + INTRA:         -10.551
REMARK INTER:                  -8.864
REMARK INTRA:                  -1.688
REMARK UNBOUND:                -2.233
REMARK  Name = laboratorio_evolutivo\Gen4_Mutante_3.pdb
REMARK  12 active torsions:
REMARK  status: ('A' for Active; 'I' for Inactive)
REMARK    1  A    between atoms: C1_1  and  C2_2
REMARK    2  A    between atoms: C2_2  and  C3_3
REMARK    3  A    between atoms: C3_3  and  C4_4
REMARK    4  A    between atoms: C3_3  and  C6_6
REMARK    5  A    between atoms: C4_4  and  C5_5
REMARK    6  A    between atoms: C6_6  and  C7_7
REMARK    7  A    between atoms: C7_7  and  C8_9
REMARK    8  A    between atoms: C9_10  and  C10_11
REMARK    9  A    between atoms: C13_14  and  C14_15
REMARK   10  A    between atoms: C16_18  and  C17_19
REMARK   11  A    between atoms: C19_21  and  C20_22
REMARK   12  A    between atoms: N2_23  and  O2_24
REMARK                            x       y       z     vdW  Elec       q    Type
REMARK                         _______ _______ _______ _____ _____    ______ ____
ROOT
ATOM      1  C8  UNL     1       0.780   1.431  19.282  0.00  0.00    +0.000 C 
ATOM      2  C9  UNL     1      -0.390   2.283  19.796  0.00  0.00    +0.000 C 
ATOM      3  C10 UNL     1      -0.814   3.374  18.823  0.00  0.00    +0.000 C 
ATOM      4  C11 UNL     1      -1.489   1.250  20.028  0.00  0.00    +0.000 C 
ATOM      5  C12 UNL     1      -0.758   0.053  20.626  0.00  0.00    +0.000 C 
ATOM      6  C13 UNL     1       0.689   0.119  20.091  0.00  0.00    +0.000 C 
ENDROOT
BRANCH   6   7
ATOM      7  C14 UNL     1       1.171  -1.103  19.338  0.00  0.00    +0.000 C 
ATOM      8  C15 UNL     1       0.960  -1.154  17.961  0.00  0.00    +0.000 C 
ATOM      9  N1  UNL     1       1.352  -2.160  17.146  0.00  0.00    +0.000 NA
ATOM     10  C16 UNL     1       1.999  -3.204  17.706  0.00  0.00    +0.000 C 
ATOM     11  C17 UNL     1       2.432  -4.316  16.801  0.00  0.00    +0.000 C 
ATOM     12  C18 UNL     1       2.255  -3.267  19.066  0.00  0.00    +0.000 C 
ATOM     13  C19 UNL     1       1.840  -2.209  19.880  0.00  0.00    +0.000 C 
BRANCH  13  14
ATOM     14  C20 UNL     1       2.075  -2.356  21.329  0.00  0.00    +0.000 C 
ATOM     15  N2  UNL     1       1.317  -2.957  22.198  0.00  0.00    +0.000 NA
BRANCH  15  16
ATOM     16  O2  UNL     1       0.204  -3.558  21.601  0.00  0.00    +0.000 OA
ATOM     17  H   UNL     1       0.322  -4.178  20.907  0.00  0.00    +0.000 HD
ENDBRANCH  15  16
ENDBRANCH  13  14
ENDBRANCH   6   7
BRANCH   1  18
ATOM     18  C7  UNL     1       2.123   2.148  19.396  0.00  0.00    +0.000 C 
ATOM     19  O1  UNL     1       2.604   2.694  18.402  0.00  0.00    +0.000 OA
BRANCH  18  20
ATOM     20  C6  UNL     1       2.854   2.150  20.733  0.00  0.00    +0.000 C 
BRANCH  20  21
ATOM     21  C3  UNL     1       3.252   3.562  21.214  0.00  0.00    +0.000 C 
BRANCH  21  23
ATOM     22  C1  UNL     1       3.332   3.701  23.777  0.00  0.00    +0.000 C 
ATOM     23  C2  UNL     1       4.106   3.437  22.493  0.00  0.00    +0.000 C 
ENDBRANCH  21  23
BRANCH  21  24
ATOM     24  C4  UNL     1       2.032   4.498  21.371  0.00  0.00    +0.000 C 
ATOM     25  C5  UNL     1       2.025   5.727  20.472  0.00  0.00    +0.000 C 
ENDBRANCH  21  24
ENDBRANCH  20  21
ENDBRANCH  18  20
ENDBRANCH   1  18
TORSDOF 8
ENDMDL
MODEL 6
REMARK VINA RESULT:    -5.775      2.715      6.191
REMARK INTER + INTRA:         -10.539
REMARK INTER:                  -8.895
REMARK INTRA:                  -1.644
REMARK UNBOUND:                -2.233
REMARK  Name = laboratorio_evolutivo\Gen4_Mutante_3.pdb
REMARK  12 active torsions:
REMARK  status: ('A' for Active; 'I' for Inactive)
REMARK    1  A    between atoms: C1_1  and  C2_2
REMARK    2  A    between atoms: C2_2  and  C3_3
REMARK    3  A    between atoms: C3_3  and  C4_4
REMARK    4  A    between atoms: C3_3  and  C6_6
REMARK    5  A    between atoms: C4_4  and  C5_5
REMARK    6  A    between atoms: C6_6  and  C7_7
REMARK    7  A    between atoms: C7_7  and  C8_9
REMARK    8  A    between atoms: C9_10  and  C10_11
REMARK    9  A    between atoms: C13_14  and  C14_15
REMARK   10  A    between atoms: C16_18  and  C17_19
REMARK   11  A    between atoms: C19_21  and  C20_22
REMARK   12  A    between atoms: N2_23  and  O2_24
REMARK                            x       y       z     vdW  Elec       q    Type
REMARK                         _______ _______ _______ _____ _____    ______ ____
ROOT
ATOM      1  C8  UNL     1       1.746   1.118  20.637  0.00  0.00    +0.000 C 
ATOM      2  C9  UNL     1       2.949   1.122  21.591  0.00  0.00    +0.000 C 
ATOM      3  C10 UNL     1       3.056   2.394  22.421  0.00  0.00    +0.000 C 
ATOM      4  C11 UNL     1       2.709  -0.116  22.449  0.00  0.00    +0.000 C 
ATOM      5  C12 UNL     1       2.190  -1.159  21.466  0.00  0.00    +0.000 C 
ATOM      6  C13 UNL     1       1.501  -0.375  20.329  0.00  0.00    +0.000 C 
ENDROOT
BRANCH   6   7
ATOM      7  C14 UNL     1       0.049  -0.720  20.074  0.00  0.00    +0.000 C 
ATOM      8  C15 UNL     1      -0.931   0.022  20.733  0.00  0.00    +0.000 C 
ATOM      9  N1  UNL     1      -2.266  -0.147  20.594  0.00  0.00    +0.000 NA
ATOM     10  C16 UNL     1      -2.691  -1.110  19.751  0.00  0.00    +0.000 C 
ATOM     11  C17 UNL     1      -4.170  -1.293  19.599  0.00  0.00    +0.000 C 
ATOM     12  C18 UNL     1      -1.810  -1.917  19.050  0.00  0.00    +0.000 C 
ATOM     13  C19 UNL     1      -0.436  -1.715  19.214  0.00  0.00    +0.000 C 
BRANCH  13  14
ATOM     14  C20 UNL     1       0.459  -2.644  18.498  0.00  0.00    +0.000 C 
ATOM     15  N2  UNL     1       0.926  -3.780  18.924  0.00  0.00    +0.000 NA
BRANCH  15  16
ATOM     16  O2  UNL     1       0.425  -4.117  20.186  0.00  0.00    +0.000 OA
ATOM     17  H   UNL     1       0.983  -4.072  20.939  0.00  0.00    +0.000 HD
ENDBRANCH  15  16
ENDBRANCH  13  14
ENDBRANCH   6   7
BRANCH   1  18
ATOM     18  C7  UNL     1       1.972   1.986  19.401  0.00  0.00    +0.000 C 
ATOM     19  O1  UNL     1       3.008   1.851  18.747  0.00  0.00    +0.000 OA
BRANCH  18  20
ATOM     20  C6  UNL     1       0.923   3.022  19.017  0.00  0.00    +0.000 C 
BRANCH  20  21
ATOM     21  C3  UNL     1       0.873   4.232  19.973  0.00  0.00    +0.000 C 
BRANCH  21  23
ATOM     22  C1  UNL     1      -0.814   5.765  21.157  0.00  0.00    +0.000 C 
ATOM     23  C2  UNL     1      -0.570   4.777  20.024  0.00  0.00    +0.000 C 
ENDBRANCH  21  23
BRANCH  21  24
ATOM     24  C4  UNL     1       1.930   5.305  19.623  0.00  0.00    +0.000 C 
ATOM     25  C5  UNL     1       2.866   5.701  20.757  0.00  0.00    +0.000 C 
ENDBRANCH  21  24
ENDBRANCH  20  21
ENDBRANCH  18  20
ENDBRANCH   1  18
TORSDOF 8
ENDMDL
MODEL 7
REMARK VINA RESULT:    -5.774      2.685      6.184
REMARK INTER + INTRA:         -10.539
REMARK INTER:                  -8.521
REMARK INTRA:                  -2.018
REMARK UNBOUND:                -2.233
REMARK  Name = laboratorio_evolutivo\Gen4_Mutante_3.pdb
REMARK  12 active torsions:
REMARK  status: ('A' for Active; 'I' for Inactive)
REMARK    1  A    between atoms: C1_1  and  C2_2
REMARK    2  A    between atoms: C2_2  and  C3_3
REMARK    3  A    between atoms: C3_3  and  C4_4
REMARK    4  A    between atoms: C3_3  and  C6_6
REMARK    5  A    between atoms: C4_4  and  C5_5
REMARK    6  A    between atoms: C6_6  and  C7_7
REMARK    7  A    between atoms: C7_7  and  C8_9
REMARK    8  A    between atoms: C9_10  and  C10_11
REMARK    9  A    between atoms: C13_14  and  C14_15
REMARK   10  A    between atoms: C16_18  and  C17_19
REMARK   11  A    between atoms: C19_21  and  C20_22
REMARK   12  A    between atoms: N2_23  and  O2_24
REMARK                            x       y       z     vdW  Elec       q    Type
REMARK                         _______ _______ _______ _____ _____    ______ ____
ROOT
ATOM      1  C8  UNL     1       1.925   1.064  20.937  0.00  0.00    +0.000 C 
ATOM      2  C9  UNL     1       2.929   0.555  21.982  0.00  0.00    +0.000 C 
ATOM      3  C10 UNL     1       3.103   1.503  23.161  0.00  0.00    +0.000 C 
ATOM      4  C11 UNL     1       2.339  -0.789  22.396  0.00  0.00    +0.000 C 
ATOM      5  C12 UNL     1       1.830  -1.393  21.092  0.00  0.00    +0.000 C 
ATOM      6  C13 UNL     1       1.490  -0.203  20.170  0.00  0.00    +0.000 C 
ENDROOT
BRANCH   6   7
ATOM      7  C14 UNL     1       0.066  -0.151  19.655  0.00  0.00    +0.000 C 
ATOM      8  C15 UNL     1      -0.941   0.231  20.540  0.00  0.00    +0.000 C 
ATOM      9  N1  UNL     1      -2.252   0.349  20.230  0.00  0.00    +0.000 NA
ATOM     10  C16 UNL     1      -2.623   0.075  18.961  0.00  0.00    +0.000 C 
ATOM     11  C17 UNL     1      -4.075   0.207  18.621  0.00  0.00    +0.000 C 
ATOM     12  C18 UNL     1      -1.711  -0.326  17.999  0.00  0.00    +0.000 C 
ATOM     13  C19 UNL     1      -0.362  -0.434  18.351  0.00  0.00    +0.000 C 
BRANCH  13  14
ATOM     14  C20 UNL     1       0.557  -0.929  17.308  0.00  0.00    +0.000 C 
ATOM     15  N2  UNL     1       1.321  -0.225  16.526  0.00  0.00    +0.000 NA
BRANCH  15  16
ATOM     16  O2  UNL     1       1.252   1.143  16.813  0.00  0.00    +0.000 OA
ATOM     17  H   UNL     1       0.648   1.456  17.458  0.00  0.00    +0.000 HD
ENDBRANCH  15  16
ENDBRANCH  13  14
ENDBRANCH   6   7
BRANCH   1  18
ATOM     18  C7  UNL     1       2.505   2.166  20.053  0.00  0.00    +0.000 C 
ATOM     19  O1  UNL     1       3.089   1.862  19.011  0.00  0.00    +0.000 OA
BRANCH  18  20
ATOM     20  C6  UNL     1       2.373   3.619  20.491  0.00  0.00    +0.000 C 
BRANCH  20  21
ATOM     21  C3  UNL     1       1.498   4.470  19.546  0.00  0.00    +0.000 C 
BRANCH  21  23
ATOM     22  C1  UNL     1       2.854   6.224  20.843  0.00  0.00    +0.000 C 
ATOM     23  C2  UNL     1       1.890   5.955  19.695  0.00  0.00    +0.000 C 
ENDBRANCH  21  23
BRANCH  21  24
ATOM     24  C4  UNL     1      -0.012   4.204  19.741  0.00  0.00    +0.000 C 
ATOM     25  C5  UNL     1      -0.689   3.410  18.632  0.00  0.00    +0.000 C 
ENDBRANCH  21  24
ENDBRANCH  20  21
ENDBRANCH  18  20
ENDBRANCH   1  18
TORSDOF 8
ENDMDL
MODEL 8
REMARK VINA RESULT:    -5.716      1.616      2.732
REMARK INTER + INTRA:         -10.456
REMARK INTER:                  -8.695
REMARK INTRA:                  -1.761
REMARK UNBOUND:                -2.233
REMARK  Name = laboratorio_evolutivo\Gen4_Mutante_3.pdb
REMARK  12 active torsions:
REMARK  status: ('A' for Active; 'I' for Inactive)
REMARK    1  A    between atoms: C1_1  and  C2_2
REMARK    2  A    between atoms: C2_2  and  C3_3
REMARK    3  A    between atoms: C3_3  and  C4_4
REMARK    4  A    between atoms: C3_3  and  C6_6
REMARK    5  A    between atoms: C4_4  and  C5_5
REMARK    6  A    between atoms: C6_6  and  C7_7
REMARK    7  A    between atoms: C7_7  and  C8_9
REMARK    8  A    between atoms: C9_10  and  C10_11
REMARK    9  A    between atoms: C13_14  and  C14_15
REMARK   10  A    between atoms: C16_18  and  C17_19
REMARK   11  A    between atoms: C19_21  and  C20_22
REMARK   12  A    between atoms: N2_23  and  O2_24
REMARK                            x       y       z     vdW  Elec       q    Type
REMARK                         _______ _______ _______ _____ _____    ______ ____
ROOT
ATOM      1  C8  UNL     1       0.423   1.911  19.201  0.00  0.00    +0.000 C 
ATOM      2  C9  UNL     1       0.296   2.099  17.682  0.00  0.00    +0.000 C 
ATOM      3  C10 UNL     1      -0.962   2.852  17.272  0.00  0.00    +0.000 C 
ATOM      4  C11 UNL     1       1.572   2.856  17.323  0.00  0.00    +0.000 C 
ATOM      5  C12 UNL     1       2.649   2.205  18.184  0.00  0.00    +0.000 C 
ATOM      6  C13 UNL     1       1.928   1.656  19.435  0.00  0.00    +0.000 C 
ENDROOT
BRANCH   6   7
ATOM      7  C14 UNL     1       2.438   2.164  20.767  0.00  0.00    +0.000 C 
ATOM      8  C15 UNL     1       2.585   3.541  20.935  0.00  0.00    +0.000 C 
ATOM      9  N1  UNL     1       3.004   4.151  22.067  0.00  0.00    +0.000 NA
ATOM     10  C16 UNL     1       3.307   3.369  23.125  0.00  0.00    +0.000 C 
ATOM     11  C17 UNL     1       3.770   4.047  24.377  0.00  0.00    +0.000 C 
ATOM     12  C18 UNL     1       3.210   1.988  23.071  0.00  0.00    +0.000 C 
ATOM     13  C19 UNL     1       2.770   1.389  21.886  0.00  0.00    +0.000 C 
BRANCH  13  14
ATOM     14  C20 UNL     1       2.749  -0.086  21.859  0.00  0.00    +0.000 C 
ATOM     15  N2  UNL     1       1.840  -0.875  22.350  0.00  0.00    +0.000 NA
BRANCH  15  16
ATOM     16  O2  UNL     1       0.763  -0.165  22.892  0.00  0.00    +0.000 OA
ATOM     17  H   UNL     1       0.372   0.536  22.408  0.00  0.00    +0.000 HD
ENDBRANCH  15  16
ENDBRANCH  13  14
ENDBRANCH   6   7
BRANCH   1  18
ATOM     18  C7  UNL     1      -0.491   0.810  19.735  0.00  0.00    +0.000 C 
ATOM     19  O1  UNL     1      -0.877   0.858  20.904  0.00  0.00    +0.000 OA
BRANCH  18  20
ATOM     20  C6  UNL     1      -0.886  -0.340  18.817  0.00  0.00    +0.000 C 
BRANCH  20  21
ATOM     21  C3  UNL     1      -2.386  -0.349  18.453  0.00  0.00    +0.000 C 
BRANCH  21  23
ATOM     22  C1  UNL     1      -4.659  -1.098  19.384  0.00  0.00    +0.000 C 
ATOM     23  C2  UNL     1      -3.145  -1.239  19.460  0.00  0.00    +0.000 C 
ENDBRANCH  21  23
BRANCH  21  24
ATOM     24  C4  UNL     1      -2.632  -0.733  16.976  0.00  0.00    +0.000 C 
ATOM     25  C5  UNL     1      -3.460   0.257  16.168  0.00  0.00    +0.000 C 
ENDBRANCH  21  24
ENDBRANCH  20  21
ENDBRANCH  18  20
ENDBRANCH   1  18
TORSDOF 8
ENDMDL
MODEL 9
REMARK VINA RESULT:    -5.701     24.044     25.943
REMARK INTER + INTRA:         -10.434
REMARK INTER:                  -8.262
REMARK INTRA:                  -2.172
REMARK UNBOUND:                -2.233
REMARK  Name = laboratorio_evolutivo\Gen4_Mutante_3.pdb
REMARK  12 active torsions:
REMARK  status: ('A' for Active; 'I' for Inactive)
REMARK    1  A    between atoms: C1_1  and  C2_2
REMARK    2  A    between atoms: C2_2  and  C3_3
REMARK    3  A    between atoms: C3_3  and  C4_4
REMARK    4  A    between atoms: C3_3  and  C6_6
REMARK    5  A    between atoms: C4_4  and  C5_5
REMARK    6  A    between atoms: C6_6  and  C7_7
REMARK    7  A    between atoms: C7_7  and  C8_9
REMARK    8  A    between atoms: C9_10  and  C10_11
REMARK    9  A    between atoms: C13_14  and  C14_15
REMARK   10  A    between atoms: C16_18  and  C17_19
REMARK   11  A    between atoms: C19_21  and  C20_22
REMARK   12  A    between atoms: N2_23  and  O2_24
REMARK                            x       y       z     vdW  Elec       q    Type
REMARK                         _______ _______ _______ _____ _____    ______ ____
ROOT
ATOM      1  C8  UNL     1      17.006  -6.442   2.247  0.00  0.00    +0.000 C 
ATOM      2  C9  UNL     1      16.662  -5.205   1.406  0.00  0.00    +0.000 C 
ATOM      3  C10 UNL     1      16.140  -4.039   2.235  0.00  0.00    +0.000 C 
ATOM      4  C11 UNL     1      17.984  -4.883   0.715  0.00  0.00    +0.000 C 
ATOM      5  C12 UNL     1      18.552  -6.247   0.339  0.00  0.00    +0.000 C 
ATOM      6  C13 UNL     1      17.985  -7.249   1.367  0.00  0.00    +0.000 C 
ENDROOT
BRANCH   6   7
ATOM      7  C14 UNL     1      19.009  -8.040   2.153  0.00  0.00    +0.000 C 
ATOM      8  C15 UNL     1      20.178  -7.392   2.552  0.00  0.00    +0.000 C 
ATOM      9  N1  UNL     1      21.174  -7.951   3.277  0.00  0.00    +0.000 NA
ATOM     10  C16 UNL     1      21.032  -9.241   3.646  0.00  0.00    +0.000 C 
ATOM     11  C17 UNL     1      22.137  -9.856   4.449  0.00  0.00    +0.000 C 
ATOM     12  C18 UNL     1      19.919  -9.988   3.298  0.00  0.00    +0.000 C 
ATOM     13  C19 UNL     1      18.906  -9.380   2.551  0.00  0.00    +0.000 C 
BRANCH  13  14
ATOM     14  C20 UNL     1      17.775 -10.238   2.149  0.00  0.00    +0.000 C 
ATOM     15  N2  UNL     1      16.799 -10.664   2.896  0.00  0.00    +0.000 NA
BRANCH  15  16
ATOM     16  O2  UNL     1      16.869 -10.156   4.197  0.00  0.00    +0.000 OA
ATOM     17  H   UNL     1      17.255 -10.670   4.880  0.00  0.00    +0.000 HD
ENDBRANCH  15  16
ENDBRANCH  13  14
ENDBRANCH   6   7
BRANCH   1  18
ATOM     18  C7  UNL     1      15.766  -7.220   2.683  0.00  0.00    +0.000 C 
ATOM     19  O1  UNL     1      15.724  -7.710   3.813  0.00  0.00    +0.000 OA
BRANCH  18  20
ATOM     20  C6  UNL     1      14.614  -7.395   1.701  0.00  0.00    +0.000 C 
BRANCH  20  21
ATOM     21  C3  UNL     1      14.777  -8.618   0.774  0.00  0.00    +0.000 C 
BRANCH  21  23
ATOM     22  C1  UNL     1      16.207  -9.104  -1.304  0.00  0.00    +0.000 C 
ATOM     23  C2  UNL     1      15.251  -8.139  -0.615  0.00  0.00    +0.000 C 
ENDBRANCH  21  23
BRANCH  21  24
ATOM     24  C4  UNL     1      13.506  -9.497   0.727  0.00  0.00    +0.000 C 
ATOM     25  C5  UNL     1      13.549 -10.761   1.574  0.00  0.00    +0.000 C 
ENDBRANCH  21  24
ENDBRANCH  20  21
ENDBRANCH  18  20
ENDBRANCH   1  18
TORSDOF 8
ENDMDL
