MODEL 1
REMARK VINA RESULT:    -8.181      0.000      0.000
REMARK INTER + INTRA:         -12.558
REMARK INTER:                 -11.289
REMARK INTRA:                  -1.269
REMARK UNBOUND:                -1.269
REMARK  Name = laboratorio_evolutivo\Gen4_Mutante_8.pdb
REMARK  12 active torsions:
REMARK  status: ('A' for Active; 'I' for Inactive)
REMARK    1  A    between atoms: C1_1  and  C2_2
REMARK    2  A    between atoms: C2_2  and  C3_3
REMARK    3  A    between atoms: C3_3  and  C4_4
REMARK    4  A    between atoms: C3_3  and  C5_5
REMARK    5  A    between atoms: C5_5  and  C6_6
REMARK    6  A    between atoms: C6_6  and  C7_8
REMARK    7  A    between atoms: C8_9  and  C9_10
REMARK    8  A    between atoms: C12_13  and  C13_14
REMARK    9  A    between atoms: C14_15  and  C15_16
REMARK   10  A    between atoms: N1_17  and  O2_18
REMARK   11  A    between atoms: C17_20  and  C18_21
REMARK   12  A    between atoms: C19_23  and  C20_24
REMARK                            x       y       z     vdW  Elec       q    Type
REMARK                         _______ _______ _______ _____ _____    ______ ____
ROOT
ATOM      1  C7  UNL     1       3.219  66.809  65.358  0.00  0.00    +0.000 C 
ATOM      2  C8  UNL     1       3.922  67.926  64.562  0.00  0.00    +0.000 C 
ATOM      3  C9  UNL     1       3.062  68.591  63.485  0.00  0.00    +0.000 C 
ATOM      4  C10 UNL     1       4.301  68.920  65.667  0.00  0.00    +0.000 C 
ATOM      5  C11 UNL     1       3.193  68.835  66.720  0.00  0.00    +0.000 C 
ATOM      6  C12 UNL     1       2.361  67.585  66.376  0.00  0.00    +0.000 C 
ENDROOT
BRANCH   6   7
ATOM      7  C13 UNL     1       1.827  66.860  67.601  0.00  0.00    +0.000 C 
ATOM      8  C14 UNL     1       0.467  67.006  67.964  0.00  0.00    +0.000 C 
ATOM      9  C16 UNL     1      -0.089  66.320  69.043  0.00  0.00    +0.000 C 
ATOM     10  C17 UNL     1       0.726  65.479  69.767  0.00  0.00    +0.000 C 
ATOM     11  C18 UNL     1       0.178  64.694  70.918  0.00  0.00    +0.000 C 
ATOM     12  N2  UNL     1       2.037  65.346  69.486  0.00  0.00    +0.000 NA
ATOM     13  C19 UNL     1       2.583  66.031  68.443  0.00  0.00    +0.000 C 
ATOM     14  C20 UNL     1       4.055  65.782  68.302  0.00  0.00    +0.000 C 
BRANCH   8  15
ATOM     15  C15 UNL     1      -0.418  67.966  67.266  0.00  0.00    +0.000 C 
ATOM     16  N1  UNL     1      -1.146  67.756  66.209  0.00  0.00    +0.000 NA
BRANCH  16  17
ATOM     17  O2  UNL     1      -0.985  66.460  65.707  0.00  0.00    +0.000 OA
ATOM     18  H   UNL     1      -0.282  66.270  65.118  0.00  0.00    +0.000 HD
ENDBRANCH  16  17
ENDBRANCH   8  15
ENDBRANCH   6   7
BRANCH   1  19
ATOM     19  C6  UNL     1       2.560  65.760  64.466  0.00  0.00    +0.000 C 
ATOM     20  O1  UNL     1       1.392  65.938  64.106  0.00  0.00    +0.000 OA
BRANCH  19  21
ATOM     21  C5  UNL     1       3.287  64.471  64.122  0.00  0.00    +0.000 C 
BRANCH  21  22
ATOM     22  C3  UNL     1       4.678  64.714  63.503  0.00  0.00    +0.000 C 
ATOM     23  C4  UNL     1       4.514  65.436  62.160  0.00  0.00    +0.000 C 
BRANCH  22  25
ATOM     24  C1  UNL     1       5.071  62.611  62.082  0.00  0.00    +0.000 C 
ATOM     25  C2  UNL     1       5.433  63.376  63.347  0.00  0.00    +0.000 C 
ENDBRANCH  22  25
ENDBRANCH  21  22
ENDBRANCH  19  21
ENDBRANCH   1  19
TORSDOF 7
ENDMDL
MODEL 2
REMARK VINA RESULT:    -8.152      2.182      4.368
REMARK INTER + INTRA:         -12.519
REMARK INTER:                 -12.150
REMARK INTRA:                  -0.369
REMARK UNBOUND:                -1.269
REMARK  Name = laboratorio_evolutivo\Gen4_Mutante_8.pdb
REMARK  12 active torsions:
REMARK  status: ('A' for Active; 'I' for Inactive)
REMARK    1  A    between atoms: C1_1  and  C2_2
REMARK    2  A    between atoms: C2_2  and  C3_3
REMARK    3  A    between atoms: C3_3  and  C4_4
REMARK    4  A    between atoms: C3_3  and  C5_5
REMARK    5  A    between atoms: C5_5  and  C6_6
REMARK    6  A    between atoms: C6_6  and  C7_8
REMARK    7  A    between atoms: C8_9  and  C9_10
REMARK    8  A    between atoms: C12_13  and  C13_14
REMARK    9  A    between atoms: C14_15  and  C15_16
REMARK   10  A    between atoms: N1_17  and  O2_18
REMARK   11  A    between atoms: C17_20  and  C18_21
REMARK   12  A    between atoms: C19_23  and  C20_24
REMARK                            x       y       z     vdW  Elec       q    Type
REMARK                         _______ _______ _______ _____ _____    ______ ____
ROOT
ATOM      1  C7  UNL     1       2.894  66.208  66.513  0.00  0.00    +0.000 C 
ATOM      2  C8  UNL     1       3.508  66.339  67.920  0.00  0.00    +0.000 C 
ATOM      3  C9  UNL     1       5.018  66.102  67.990  0.00  0.00    +0.000 C 
ATOM      4  C10 UNL     1       3.151  67.783  68.295  0.00  0.00    +0.000 C 
ATOM      5  C11 UNL     1       3.179  68.585  66.990  0.00  0.00    +0.000 C 
ATOM      6  C12 UNL     1       3.240  67.554  65.847  0.00  0.00    +0.000 C 
ENDROOT
BRANCH   6   7
ATOM      7  C13 UNL     1       2.477  67.987  64.605  0.00  0.00    +0.000 C 
ATOM      8  C14 UNL     1       1.069  67.847  64.564  0.00  0.00    +0.000 C 
ATOM      9  C16 UNL     1       0.315  68.280  63.475  0.00  0.00    +0.000 C 
ATOM     10  C17 UNL     1       0.976  68.858  62.415  0.00  0.00    +0.000 C 
ATOM     11  C18 UNL     1       0.216  69.368  61.230  0.00  0.00    +0.000 C 
ATOM     12  N2  UNL     1       2.319  68.968  62.391  0.00  0.00    +0.000 NA
ATOM     13  C19 UNL     1       3.057  68.528  63.448  0.00  0.00    +0.000 C 
ATOM     14  C20 UNL     1       4.530  68.704  63.231  0.00  0.00    +0.000 C 
BRANCH   8  15
ATOM     15  C15 UNL     1       0.331  67.153  65.643  0.00  0.00    +0.000 C 
ATOM     16  N1  UNL     1      -0.338  67.686  66.622  0.00  0.00    +0.000 NA
BRANCH  16  17
ATOM     17  O2  UNL     1      -0.269  69.083  66.608  0.00  0.00    +0.000 OA
ATOM     18  H   UNL     1       0.563  69.511  66.572  0.00  0.00    +0.000 HD
ENDBRANCH  16  17
ENDBRANCH   8  15
ENDBRANCH   6   7
BRANCH   1  19
ATOM     19  C6  UNL     1       3.271  64.906  65.812  0.00  0.00    +0.000 C 
ATOM     20  O1  UNL     1       3.766  63.994  66.483  0.00  0.00    +0.000 OA
BRANCH  19  21
ATOM     21  C5  UNL     1       3.146  64.774  64.303  0.00  0.00    +0.000 C 
BRANCH  21  22
ATOM     22  C3  UNL     1       4.491  64.463  63.616  0.00  0.00    +0.000 C 
ATOM     23  C4  UNL     1       4.572  65.235  62.294  0.00  0.00    +0.000 C 
BRANCH  22  25
ATOM     24  C1  UNL     1       5.393  62.570  62.133  0.00  0.00    +0.000 C 
ATOM     25  C2  UNL     1       4.640  62.941  63.403  0.00  0.00    +0.000 C 
ENDBRANCH  22  25
ENDBRANCH  21  22
ENDBRANCH  19  21
ENDBRANCH   1  19
TORSDOF 7
ENDMDL
MODEL 3
REMARK VINA RESULT:    -8.094      2.712      5.028
REMARK INTER + INTRA:         -12.439
REMARK INTER:                 -12.354
REMARK INTRA:                  -0.086
REMARK UNBOUND:                -1.269
REMARK  Name = laboratorio_evolutivo\Gen4_Mutante_8.pdb
REMARK  12 active torsions:
REMARK  status: ('A' for Active; 'I' for Inactive)
REMARK    1  A    between atoms: C1_1  and  C2_2
REMARK    2  A    between atoms: C2_2  and  C3_3
REMARK    3  A    between atoms: C3_3  and  C4_4
REMARK    4  A    between atoms: C3_3  and  C5_5
REMARK    5  A    between atoms: C5_5  and  C6_6
REMARK    6  A    between atoms: C6_6  and  C7_8
REMARK    7  A    between atoms: C8_9  and  C9_10
REMARK    8  A    between atoms: C12_13  and  C13_14
REMARK    9  A    between atoms: C14_15  and  C15_16
REMARK   10  A    between atoms: N1_17  and  O2_18
REMARK   11  A    between atoms: C17_20  and  C18_21
REMARK   12  A    between atoms: C19_23  and  C20_24
REMARK                            x       y       z     vdW  Elec       q    Type
REMARK                         _______ _______ _______ _____ _____    ______ ____
ROOT
ATOM      1  C7  UNL     1       2.980  66.142  66.462  0.00  0.00    +0.000 C 
ATOM      2  C8  UNL     1       3.708  66.233  67.817  0.00  0.00    +0.000 C 
ATOM      3  C9  UNL     1       5.200  65.896  67.773  0.00  0.00    +0.000 C 
ATOM      4  C10 UNL     1       3.478  67.698  68.208  0.00  0.00    +0.000 C 
ATOM      5  C11 UNL     1       3.459  68.495  66.901  0.00  0.00    +0.000 C 
ATOM      6  C12 UNL     1       3.363  67.460  65.763  0.00  0.00    +0.000 C 
ENDROOT
BRANCH   6   7
ATOM      7  C13 UNL     1       2.537  67.941  64.580  0.00  0.00    +0.000 C 
ATOM      8  C14 UNL     1       3.185  68.508  63.458  0.00  0.00    +0.000 C 
ATOM      9  C16 UNL     1       2.482  68.912  62.324  0.00  0.00    +0.000 C 
ATOM     10  C17 UNL     1       1.116  68.746  62.313  0.00  0.00    +0.000 C 
ATOM     11  C18 UNL     1       0.311  69.134  61.111  0.00  0.00    +0.000 C 
ATOM     12  N2  UNL     1       0.452  68.254  63.378  0.00  0.00    +0.000 NA
ATOM     13  C19 UNL     1       1.138  67.877  64.492  0.00  0.00    +0.000 C 
ATOM     14  C20 UNL     1       0.233  67.384  65.582  0.00  0.00    +0.000 C 
BRANCH   8  15
ATOM     15  C15 UNL     1       4.639  68.784  63.465  0.00  0.00    +0.000 C 
ATOM     16  N1  UNL     1       5.445  68.837  62.446  0.00  0.00    +0.000 NA
BRANCH  16  17
ATOM     17  O2  UNL     1       4.794  68.547  61.242  0.00  0.00    +0.000 OA
ATOM     18  H   UNL     1       5.288  68.460  60.452  0.00  0.00    +0.000 HD
ENDBRANCH  16  17
ENDBRANCH   8  15
ENDBRANCH   6   7
BRANCH   1  19
ATOM     19  C6  UNL     1       3.214  64.816  65.743  0.00  0.00    +0.000 C 
ATOM     20  O1  UNL     1       3.549  63.831  66.411  0.00  0.00    +0.000 OA
BRANCH  19  21
ATOM     21  C5  UNL     1       3.149  64.735  64.227  0.00  0.00    +0.000 C 
BRANCH  21  22
ATOM     22  C3  UNL     1       4.518  64.441  63.584  0.00  0.00    +0.000 C 
ATOM     23  C4  UNL     1       4.633  65.215  62.266  0.00  0.00    +0.000 C 
BRANCH  22  25
ATOM     24  C1  UNL     1       5.429  62.559  62.092  0.00  0.00    +0.000 C 
ATOM     25  C2  UNL     1       4.693  62.921  63.374  0.00  0.00    +0.000 C 
ENDBRANCH  22  25
ENDBRANCH  21  22
ENDBRANCH  19  21
ENDBRANCH   1  19
TORSDOF 7
ENDMDL
MODEL 4
REMARK VINA RESULT:    -8.004      2.368      4.511
REMARK INTER + INTRA:         -12.315
REMARK INTER:                 -11.192
REMARK INTRA:                  -1.122
REMARK UNBOUND:                -1.269
REMARK  Name = laboratorio_evolutivo\Gen4_Mutante_8.pdb
REMARK  12 active torsions:
REMARK  status: ('A' for Active; 'I' for Inactive)
REMARK    1  A    between atoms: C1_1  and  C2_2
REMARK    2  A    between atoms: C2_2  and  C3_3
REMARK    3  A    between atoms: C3_3  and  C4_4
REMARK    4  A    between atoms: C3_3  and  C5_5
REMARK    5  A    between atoms: C5_5  and  C6_6
REMARK    6  A    between atoms: C6_6  and  C7_8
REMARK    7  A    between atoms: C8_9  and  C9_10
REMARK    8  A    between atoms: C12_13  and  C13_14
REMARK    9  A    between atoms: C14_15  and  C15_16
REMARK   10  A    between atoms: N1_17  and  O2_18
REMARK   11  A    between atoms: C17_20  and  C18_21
REMARK   12  A    between atoms: C19_23  and  C20_24
REMARK                            x       y       z     vdW  Elec       q    Type
REMARK                         _______ _______ _______ _____ _____    ______ ____
ROOT
ATOM      1  C7  UNL     1       3.563  66.908  65.328  0.00  0.00    +0.000 C 
ATOM      2  C8  UNL     1       5.001  67.215  64.867  0.00  0.00    +0.000 C 
ATOM      3  C9  UNL     1       5.469  66.425  63.642  0.00  0.00    +0.000 C 
ATOM      4  C10 UNL     1       4.930  68.718  64.569  0.00  0.00    +0.000 C 
ATOM      5  C11 UNL     1       3.514  68.987  64.049  0.00  0.00    +0.000 C 
ATOM      6  C12 UNL     1       2.694  67.716  64.346  0.00  0.00    +0.000 C 
ENDROOT
BRANCH   6   7
ATOM      7  C13 UNL     1       1.244  68.005  64.701  0.00  0.00    +0.000 C 
ATOM      8  C14 UNL     1       0.257  67.984  63.688  0.00  0.00    +0.000 C 
ATOM      9  C16 UNL     1      -1.094  68.184  63.967  0.00  0.00    +0.000 C 
ATOM     10  C17 UNL     1      -1.461  68.409  65.275  0.00  0.00    +0.000 C 
ATOM     11  C18 UNL     1      -2.900  68.601  65.639  0.00  0.00    +0.000 C 
ATOM     12  N2  UNL     1      -0.549  68.485  66.264  0.00  0.00    +0.000 NA
ATOM     13  C19 UNL     1       0.772  68.306  65.988  0.00  0.00    +0.000 C 
ATOM     14  C20 UNL     1       1.637  68.455  67.204  0.00  0.00    +0.000 C 
BRANCH   8  15
ATOM     15  C15 UNL     1       0.620  67.834  62.261  0.00  0.00    +0.000 C 
ATOM     16  N1  UNL     1       0.665  68.759  61.348  0.00  0.00    +0.000 NA
BRANCH  16  17
ATOM     17  O2  UNL     1       0.268  70.006  61.842  0.00  0.00    +0.000 OA
ATOM     18  H   UNL     1       0.161  70.133  62.764  0.00  0.00    +0.000 HD
ENDBRANCH  16  17
ENDBRANCH   8  15
ENDBRANCH   6   7
BRANCH   1  19
ATOM     19  C6  UNL     1       3.298  65.416  65.511  0.00  0.00    +0.000 C 
ATOM     20  O1  UNL     1       2.730  64.799  64.604  0.00  0.00    +0.000 OA
BRANCH  19  21
ATOM     21  C5  UNL     1       3.622  64.728  66.827  0.00  0.00    +0.000 C 
BRANCH  21  22
ATOM     22  C3  UNL     1       4.069  65.715  67.924  0.00  0.00    +0.000 C 
ATOM     23  C4  UNL     1       5.548  65.473  68.247  0.00  0.00    +0.000 C 
BRANCH  22  25
ATOM     24  C1  UNL     1       2.902  64.115  69.560  0.00  0.00    +0.000 C 
ATOM     25  C2  UNL     1       3.176  65.562  69.174  0.00  0.00    +0.000 C 
ENDBRANCH  22  25
ENDBRANCH  21  22
ENDBRANCH  19  21
ENDBRANCH   1  19
TORSDOF 7
ENDMDL
MODEL 5
REMARK VINA RESULT:    -7.730      5.090      9.148
REMARK INTER + INTRA:         -11.937
REMARK INTER:                 -10.619
REMARK INTRA:                  -1.318
REMARK UNBOUND:                -1.269
REMARK  Name = laboratorio_evolutivo\Gen4_Mutante_8.pdb
REMARK  12 active torsions:
REMARK  status: ('A' for Active; 'I' for Inactive)
REMARK    1  A    between atoms: C1_1  and  C2_2
REMARK    2  A    between atoms: C2_2  and  C3_3
REMARK    3  A    between atoms: C3_3  and  C4_4
REMARK    4  A    between atoms: C3_3  and  C5_5
REMARK    5  A    between atoms: C5_5  and  C6_6
REMARK    6  A    between atoms: C6_6  and  C7_8
REMARK    7  A    between atoms: C8_9  and  C9_10
REMARK    8  A    between atoms: C12_13  and  C13_14
REMARK    9  A    between atoms: C14_15  and  C15_16
REMARK   10  A    between atoms: N1_17  and  O2_18
REMARK   11  A    between atoms: C17_20  and  C18_21
REMARK   12  A    between atoms: C19_23  and  C20_24
REMARK                            x       y       z     vdW  Elec       q    Type
REMARK                         _______ _______ _______ _____ _____    ______ ____
ROOT
ATOM      1  C7  UNL     1       2.800  59.890  72.067  0.00  0.00    +0.000 C 
ATOM      2  C8  UNL     1       2.325  58.428  71.975  0.00  0.00    +0.000 C 
ATOM      3  C9  UNL     1       0.812  58.232  72.097  0.00  0.00    +0.000 C 
ATOM      4  C10 UNL     1       2.833  58.010  70.590  0.00  0.00    +0.000 C 
ATOM      5  C11 UNL     1       2.757  59.260  69.709  0.00  0.00    +0.000 C 
ATOM      6  C12 UNL     1       2.511  60.447  70.660  0.00  0.00    +0.000 C 
ENDROOT
BRANCH   6   7
ATOM      7  C13 UNL     1       3.197  61.729  70.213  0.00  0.00    +0.000 C 
ATOM      8  C14 UNL     1       2.423  62.789  69.685  0.00  0.00    +0.000 C 
ATOM      9  C16 UNL     1       2.992  64.006  69.314  0.00  0.00    +0.000 C 
ATOM     10  C17 UNL     1       4.350  64.164  69.474  0.00  0.00    +0.000 C 
ATOM     11  C18 UNL     1       5.013  65.460  69.120  0.00  0.00    +0.000 C 
ATOM     12  N2  UNL     1       5.132  63.165  69.928  0.00  0.00    +0.000 NA
ATOM     13  C19 UNL     1       4.577  61.970  70.274  0.00  0.00    +0.000 C 
ATOM     14  C20 UNL     1       5.601  60.973  70.728  0.00  0.00    +0.000 C 
BRANCH   8  15
ATOM     15  C15 UNL     1       0.976  62.629  69.416  0.00  0.00    +0.000 C 
ATOM     16  N1  UNL     1      -0.009  63.309  69.923  0.00  0.00    +0.000 NA
BRANCH  16  17
ATOM     17  O2  UNL     1       0.428  64.256  70.855  0.00  0.00    +0.000 OA
ATOM     18  H   UNL     1      -0.072  64.415  71.631  0.00  0.00    +0.000 HD
ENDBRANCH  16  17
ENDBRANCH   8  15
ENDBRANCH   6   7
BRANCH   1  19
ATOM     19  C6  UNL     1       2.256  60.623  73.291  0.00  0.00    +0.000 C 
ATOM     20  O1  UNL     1       2.520  60.179  74.413  0.00  0.00    +0.000 OA
BRANCH  19  21
ATOM     21  C5  UNL     1       1.314  61.804  73.129  0.00  0.00    +0.000 C 
BRANCH  21  22
ATOM     22  C3  UNL     1      -0.094  61.530  73.694  0.00  0.00    +0.000 C 
ATOM     23  C4  UNL     1      -1.071  61.317  72.533  0.00  0.00    +0.000 C 
BRANCH  22  25
ATOM     24  C1  UNL     1       0.517  63.779  74.774  0.00  0.00    +0.000 C 
ATOM     25  C2  UNL     1      -0.536  62.691  74.611  0.00  0.00    +0.000 C 
ENDBRANCH  22  25
ENDBRANCH  21  22
ENDBRANCH  19  21
ENDBRANCH   1  19
TORSDOF 7
ENDMDL
MODEL 6
REMARK VINA RESULT:    -7.501      2.357      4.345
REMARK INTER + INTRA:         -11.620
REMARK INTER:                 -11.044
REMARK INTRA:                  -0.576
REMARK UNBOUND:                -1.269
REMARK  Name = laboratorio_evolutivo\Gen4_Mutante_8.pdb
REMARK  12 active torsions:
REMARK  status: ('A' for Active; 'I' for Inactive)
REMARK    1  A    between atoms: C1_1  and  C2_2
REMARK    2  A    between atoms: C2_2  and  C3_3
REMARK    3  A    between atoms: C3_3  and  C4_4
REMARK    4  A    between atoms: C3_3  and  C5_5
REMARK    5  A    between atoms: C5_5  and  C6_6
REMARK    6  A    between atoms: C6_6  and  C7_8
REMARK    7  A    between atoms: C8_9  and  C9_10
REMARK    8  A    between atoms: C12_13  and  C13_14
REMARK    9  A    between atoms: C14_15  and  C15_16
REMARK   10  A    between atoms: N1_17  and  O2_18
REMARK   11  A    between atoms: C17_20  and  C18_21
REMARK   12  A    between atoms: C19_23  and  C20_24
REMARK                            x       y       z     vdW  Elec       q    Type
REMARK                         _______ _______ _______ _____ _____    ______ ____
ROOT
ATOM      1  C7  UNL     1       3.471  66.943  65.274  0.00  0.00    +0.000 C 
ATOM      2  C8  UNL     1       4.912  67.407  64.986  0.00  0.00    +0.000 C 
ATOM      3  C9  UNL     1       5.517  66.868  63.688  0.00  0.00    +0.000 C 
ATOM      4  C10 UNL     1       4.758  68.932  64.940  0.00  0.00    +0.000 C 
ATOM      5  C11 UNL     1       3.366  69.205  64.363  0.00  0.00    +0.000 C 
ATOM      6  C12 UNL     1       2.618  67.858  64.376  0.00  0.00    +0.000 C 
ENDROOT
BRANCH   6   7
ATOM      7  C13 UNL     1       1.130  67.998  64.659  0.00  0.00    +0.000 C 
ATOM      8  C14 UNL     1       0.671  68.020  65.997  0.00  0.00    +0.000 C 
ATOM      9  C16 UNL     1      -0.674  68.203  66.314  0.00  0.00    +0.000 C 
ATOM     10  C17 UNL     1      -1.569  68.367  65.281  0.00  0.00    +0.000 C 
ATOM     11  C18 UNL     1      -3.021  68.598  65.562  0.00  0.00    +0.000 C 
ATOM     12  N2  UNL     1      -1.183  68.306  63.992  0.00  0.00    +0.000 NA
ATOM     13  C19 UNL     1       0.129  68.109  63.683  0.00  0.00    +0.000 C 
ATOM     14  C20 UNL     1       0.365  68.040  62.203  0.00  0.00    +0.000 C 
BRANCH   8  15
ATOM     15  C15 UNL     1       1.586  67.759  67.131  0.00  0.00    +0.000 C 
ATOM     16  N1  UNL     1       2.047  68.614  67.995  0.00  0.00    +0.000 NA
BRANCH  16  17
ATOM     17  O2  UNL     1       1.615  69.918  67.730  0.00  0.00    +0.000 OA
ATOM     18  H   UNL     1       0.779  70.063  67.335  0.00  0.00    +0.000 HD
ENDBRANCH  16  17
ENDBRANCH   8  15
ENDBRANCH   6   7
BRANCH   1  19
ATOM     19  C6  UNL     1       3.299  65.429  65.183  0.00  0.00    +0.000 C 
ATOM     20  O1  UNL     1       2.600  64.966  64.275  0.00  0.00    +0.000 OA
BRANCH  19  21
ATOM     21  C5  UNL     1       3.880  64.518  66.252  0.00  0.00    +0.000 C 
BRANCH  21  22
ATOM     22  C3  UNL     1       3.892  65.167  67.650  0.00  0.00    +0.000 C 
ATOM     23  C4  UNL     1       5.338  65.487  68.046  0.00  0.00    +0.000 C 
BRANCH  22  25
ATOM     24  C1  UNL     1       3.350  62.755  68.349  0.00  0.00    +0.000 C 
ATOM     25  C2  UNL     1       3.208  64.236  68.675  0.00  0.00    +0.000 C 
ENDBRANCH  22  25
ENDBRANCH  21  22
ENDBRANCH  19  21
ENDBRANCH   1  19
TORSDOF 7
ENDMDL
MODEL 7
REMARK VINA RESULT:    -7.150      5.341      8.349
REMARK INTER + INTRA:         -11.136
REMARK INTER:                 -10.553
REMARK INTRA:                  -0.583
REMARK UNBOUND:                -1.269
REMARK  Name = laboratorio_evolutivo\Gen4_Mutante_8.pdb
REMARK  12 active torsions:
REMARK  status: ('A' for Active; 'I' for Inactive)
REMARK    1  A    between atoms: C1_1  and  C2_2
REMARK    2  A    between atoms: C2_2  and  C3_3
REMARK    3  A    between atoms: C3_3  and  C4_4
REMARK    4  A    between atoms: C3_3  and  C5_5
REMARK    5  A    between atoms: C5_5  and  C6_6
REMARK    6  A    between atoms: C6_6  and  C7_8
REMARK    7  A    between atoms: C8_9  and  C9_10
REMARK    8  A    between atoms: C12_13  and  C13_14
REMARK    9  A    between atoms: C14_15  and  C15_16
REMARK   10  A    between atoms: N1_17  and  O2_18
REMARK   11  A    between atoms: C17_20  and  C18_21
REMARK   12  A    between atoms: C19_23  and  C20_24
REMARK                            x       y       z     vdW  Elec       q    Type
REMARK                         _______ _______ _______ _____ _____    ______ ____
ROOT
ATOM      1  C7  UNL     1       3.011  61.115  70.307  0.00  0.00    +0.000 C 
ATOM      2  C8  UNL     1       4.537  61.290  70.184  0.00  0.00    +0.000 C 
ATOM      3  C9  UNL     1       5.024  62.740  70.185  0.00  0.00    +0.000 C 
ATOM      4  C10 UNL     1       5.049  60.527  71.412  0.00  0.00    +0.000 C 
ATOM      5  C11 UNL     1       3.994  60.715  72.506  0.00  0.00    +0.000 C 
ATOM      6  C12 UNL     1       2.752  61.309  71.813  0.00  0.00    +0.000 C 
ENDROOT
BRANCH   6   7
ATOM      7  C13 UNL     1       1.440  60.823  72.410  0.00  0.00    +0.000 C 
ATOM      8  C14 UNL     1       0.993  59.508  72.141  0.00  0.00    +0.000 C 
ATOM      9  C16 UNL     1      -0.171  58.993  72.707  0.00  0.00    +0.000 C 
ATOM     10  C17 UNL     1      -0.896  59.802  73.552  0.00  0.00    +0.000 C 
ATOM     11  C18 UNL     1      -2.140  59.293  74.213  0.00  0.00    +0.000 C 
ATOM     12  N2  UNL     1      -0.533  61.076  73.799  0.00  0.00    +0.000 NA
ATOM     13  C19 UNL     1       0.595  61.585  73.231  0.00  0.00    +0.000 C 
ATOM     14  C20 UNL     1       0.822  63.022  73.595  0.00  0.00    +0.000 C 
BRANCH   8  15
ATOM     15  C15 UNL     1       1.696  58.638  71.171  0.00  0.00    +0.000 C 
ATOM     16  N1  UNL     1       2.497  57.646  71.425  0.00  0.00    +0.000 NA
BRANCH  16  17
ATOM     17  O2  UNL     1       2.701  57.471  72.797  0.00  0.00    +0.000 OA
ATOM     18  H   UNL     1       3.258  58.059  73.266  0.00  0.00    +0.000 HD
ENDBRANCH  16  17
ENDBRANCH   8  15
ENDBRANCH   6   7
BRANCH   1  19
ATOM     19  C6  UNL     1       2.229  61.951  69.297  0.00  0.00    +0.000 C 
ATOM     20  O1  UNL     1       2.597  61.954  68.118  0.00  0.00    +0.000 OA
BRANCH  19  21
ATOM     21  C5  UNL     1       1.091  62.849  69.753  0.00  0.00    +0.000 C 
BRANCH  21  22
ATOM     22  C3  UNL     1       1.565  64.261  70.153  0.00  0.00    +0.000 C 
ATOM     23  C4  UNL     1       0.354  65.196  70.234  0.00  0.00    +0.000 C 
BRANCH  22  25
ATOM     24  C1  UNL     1       2.666  66.289  69.026  0.00  0.00    +0.000 C 
ATOM     25  C2  UNL     1       2.620  64.772  69.148  0.00  0.00    +0.000 C 
ENDBRANCH  22  25
ENDBRANCH  21  22
ENDBRANCH  19  21
ENDBRANCH   1  19
TORSDOF 7
ENDMDL
MODEL 8
REMARK VINA RESULT:    -7.106      5.644      9.714
REMARK INTER + INTRA:         -11.076
REMARK INTER:                  -9.530
REMARK INTRA:                  -1.546
REMARK UNBOUND:                -1.269
REMARK  Name = laboratorio_evolutivo\Gen4_Mutante_8.pdb
REMARK  12 active torsions:
REMARK  status: ('A' for Active; 'I' for Inactive)
REMARK    1  A    between atoms: C1_1  and  C2_2
REMARK    2  A    between atoms: C2_2  and  C3_3
REMARK    3  A    between atoms: C3_3  and  C4_4
REMARK    4  A    between atoms: C3_3  and  C5_5
REMARK    5  A    between atoms: C5_5  and  C6_6
REMARK    6  A    between atoms: C6_6  and  C7_8
REMARK    7  A    between atoms: C8_9  and  C9_10
REMARK    8  A    between atoms: C12_13  and  C13_14
REMARK    9  A    between atoms: C14_15  and  C15_16
REMARK   10  A    between atoms: N1_17  and  O2_18
REMARK   11  A    between atoms: C17_20  and  C18_21
REMARK   12  A    between atoms: C19_23  and  C20_24
REMARK                            x       y       z     vdW  Elec       q    Type
REMARK                         _______ _______ _______ _____ _____    ______ ____
ROOT
ATOM      1  C7  UNL     1       2.562  59.959  72.262  0.00  0.00    +0.000 C 
ATOM      2  C8  UNL     1       1.996  58.526  72.226  0.00  0.00    +0.000 C 
ATOM      3  C9  UNL     1       0.474  58.429  72.353  0.00  0.00    +0.000 C 
ATOM      4  C10 UNL     1       2.476  58.024  70.858  0.00  0.00    +0.000 C 
ATOM      5  C11 UNL     1       2.478  59.242  69.930  0.00  0.00    +0.000 C 
ATOM      6  C12 UNL     1       2.307  60.477  70.834  0.00  0.00    +0.000 C 
ENDROOT
BRANCH   6   7
ATOM      7  C13 UNL     1       3.070  61.696  70.340  0.00  0.00    +0.000 C 
ATOM      8  C14 UNL     1       2.361  62.794  69.796  0.00  0.00    +0.000 C 
ATOM      9  C16 UNL     1       3.006  63.958  69.381  0.00  0.00    +0.000 C 
ATOM     10  C17 UNL     1       4.374  64.025  69.511  0.00  0.00    +0.000 C 
ATOM     11  C18 UNL     1       5.117  65.261  69.110  0.00  0.00    +0.000 C 
ATOM     12  N2  UNL     1       5.094  62.986  69.979  0.00  0.00    +0.000 NA
ATOM     13  C19 UNL     1       4.465  61.842  70.368  0.00  0.00    +0.000 C 
ATOM     14  C20 UNL     1       5.427  60.789  70.831  0.00  0.00    +0.000 C 
BRANCH   8  15
ATOM     15  C15 UNL     1       0.902  62.727  69.558  0.00  0.00    +0.000 C 
ATOM     16  N1  UNL     1      -0.052  63.165  70.325  0.00  0.00    +0.000 NA
BRANCH  16  17
ATOM     17  O2  UNL     1       0.438  63.712  71.516  0.00  0.00    +0.000 OA
ATOM     18  H   UNL     1       0.843  64.556  71.512  0.00  0.00    +0.000 HD
ENDBRANCH  16  17
ENDBRANCH   8  15
ENDBRANCH   6   7
BRANCH   1  19
ATOM     19  C6  UNL     1       2.065  60.770  73.456  0.00  0.00    +0.000 C 
ATOM     20  O1  UNL     1       1.645  61.915  73.260  0.00  0.00    +0.000 OA
BRANCH  19  21
ATOM     21  C5  UNL     1       2.191  60.224  74.869  0.00  0.00    +0.000 C 
BRANCH  21  22
ATOM     22  C3  UNL     1       0.842  60.180  75.615  0.00  0.00    +0.000 C 
ATOM     23  C4  UNL     1       0.774  61.351  76.602  0.00  0.00    +0.000 C 
BRANCH  22  25
ATOM     24  C1  UNL     1       1.646  57.752  75.849  0.00  0.00    +0.000 C 
ATOM     25  C2  UNL     1       0.671  58.820  76.325  0.00  0.00    +0.000 C 
ENDBRANCH  22  25
ENDBRANCH  21  22
ENDBRANCH  19  21
ENDBRANCH   1  19
TORSDOF 7
ENDMDL
MODEL 9
REMARK VINA RESULT:    -6.951      5.609      8.675
REMARK INTER + INTRA:         -10.861
REMARK INTER:                  -9.428
REMARK INTRA:                  -1.433
REMARK UNBOUND:                -1.269
REMARK  Name = laboratorio_evolutivo\Gen4_Mutante_8.pdb
REMARK  12 active torsions:
REMARK  status: ('A' for Active; 'I' for Inactive)
REMARK    1  A    between atoms: C1_1  and  C2_2
REMARK    2  A    between atoms: C2_2  and  C3_3
REMARK    3  A    between atoms: C3_3  and  C4_4
REMARK    4  A    between atoms: C3_3  and  C5_5
REMARK    5  A    between atoms: C5_5  and  C6_6
REMARK    6  A    between atoms: C6_6  and  C7_8
REMARK    7  A    between atoms: C8_9  and  C9_10
REMARK    8  A    between atoms: C12_13  and  C13_14
REMARK    9  A    between atoms: C14_15  and  C15_16
REMARK   10  A    between atoms: N1_17  and  O2_18
REMARK   11  A    between atoms: C17_20  and  C18_21
REMARK   12  A    between atoms: C19_23  and  C20_24
REMARK                            x       y       z     vdW  Elec       q    Type
REMARK                         _______ _______ _______ _____ _____    ______ ____
ROOT
ATOM      1  C7  UNL     1       2.711  59.957  71.278  0.00  0.00    +0.000 C 
ATOM      2  C8  UNL     1       4.227  59.804  71.510  0.00  0.00    +0.000 C 
ATOM      3  C9  UNL     1       5.046  61.078  71.290  0.00  0.00    +0.000 C 
ATOM      4  C10 UNL     1       4.285  59.349  72.974  0.00  0.00    +0.000 C 
ATOM      5  C11 UNL     1       3.116  60.036  73.684  0.00  0.00    +0.000 C 
ATOM      6  C12 UNL     1       2.219  60.622  72.577  0.00  0.00    +0.000 C 
ENDROOT
BRANCH   6   7
ATOM      7  C13 UNL     1       0.737  60.580  72.918  0.00  0.00    +0.000 C 
ATOM      8  C14 UNL     1       0.075  61.766  73.314  0.00  0.00    +0.000 C 
ATOM      9  C16 UNL     1      -1.293  61.795  73.582  0.00  0.00    +0.000 C 
ATOM     10  C17 UNL     1      -2.006  60.625  73.451  0.00  0.00    +0.000 C 
ATOM     11  C18 UNL     1      -3.483  60.602  73.696  0.00  0.00    +0.000 C 
ATOM     12  N2  UNL     1      -1.408  59.463  73.122  0.00  0.00    +0.000 NA
ATOM     13  C19 UNL     1      -0.069  59.431  72.878  0.00  0.00    +0.000 C 
ATOM     14  C20 UNL     1       0.423  58.052  72.557  0.00  0.00    +0.000 C 
BRANCH   8  15
ATOM     15  C15 UNL     1       0.820  63.022  73.551  0.00  0.00    +0.000 C 
ATOM     16  N1  UNL     1       1.355  63.434  74.663  0.00  0.00    +0.000 NA
BRANCH  16  17
ATOM     17  O2  UNL     1       1.118  62.551  75.721  0.00  0.00    +0.000 OA
ATOM     18  H   UNL     1       1.061  62.875  76.598  0.00  0.00    +0.000 HD
ENDBRANCH  16  17
ENDBRANCH   8  15
ENDBRANCH   6   7
BRANCH   1  19
ATOM     19  C6  UNL     1       2.371  60.594  69.933  0.00  0.00    +0.000 C 
ATOM     20  O1  UNL     1       2.932  60.168  68.918  0.00  0.00    +0.000 OA
BRANCH  19  21
ATOM     21  C5  UNL     1       1.451  61.801  69.859  0.00  0.00    +0.000 C 
BRANCH  21  22
ATOM     22  C3  UNL     1       2.197  63.136  70.051  0.00  0.00    +0.000 C 
ATOM     23  C4  UNL     1       1.178  64.279  70.111  0.00  0.00    +0.000 C 
BRANCH  22  25
ATOM     24  C1  UNL     1       4.450  64.139  69.333  0.00  0.00    +0.000 C 
ATOM     25  C2  UNL     1       3.223  63.340  68.915  0.00  0.00    +0.000 C 
ENDBRANCH  22  25
ENDBRANCH  21  22
ENDBRANCH  19  21
ENDBRANCH   1  19
TORSDOF 7
ENDMDL
