REMARK  Name = laboratorio_evolutivo\Gen4_Mutante_7.pdb
REMARK  12 active torsions:
REMARK  status: ('A' for Active; 'I' for Inactive)
REMARK    1  A    between atoms: C1_1  and  C2_2
REMARK    2  A    between atoms: C2_2  and  C3_3
REMARK    3  A    between atoms: C5_5  and  C6_6
REMARK    4  A    between atoms: N1_7  and  O1_8
REMARK    5  A    between atoms: C7_9  and  C8_10
REMARK    6  A    between atoms: C11_13  and  C12_14
REMARK    7  A    between atoms: C13_15  and  C14_16
REMARK    8  A    between atoms: C14_16  and  C15_18
REMARK    9  A    between atoms: C15_18  and  C16_19
REMARK   10  A    between atoms: C16_19  and  C17_20
REMARK   11  A    between atoms: C16_19  and  C18_21
REMARK   12  A    between atoms: C18_21  and  C19_22
REMARK                            x       y       z     vdW  Elec       q    Type
REMARK                         _______ _______ _______ _____ _____    ______ ____
ROOT
ATOM      1  C8  UNL     1      -0.108  -1.842  -0.936  0.00  0.00    +0.000 C 
ATOM      2  C9  UNL     1      -0.018  -2.776  -2.166  0.00  0.00    +0.000 C 
ATOM      3  C10 UNL     1       1.392  -2.606  -2.724  0.00  0.00    +0.000 C 
ATOM      4  C11 UNL     1       2.247  -2.240  -1.510  0.00  0.00    +0.000 C 
ATOM      5  C12 UNL     1       2.655  -3.483  -0.717  0.00  0.00    +0.000 C 
ATOM      6  C13 UNL     1       1.323  -1.270  -0.754  0.00  0.00    +0.000 C 
ENDROOT
BRANCH   1  10
ATOM      7  C3  UNL     1      -2.904   1.377  -1.494  0.00  0.00    +0.000 C 
ATOM      8  C4  UNL     1      -2.954   0.682  -0.295  0.00  0.00    +0.000 C 
ATOM      9  C5  UNL     1      -2.064  -0.378  -0.074  0.00  0.00    +0.000 C 
ATOM     10  C7  UNL     1      -1.137  -0.735  -1.069  0.00  0.00    +0.000 C 
ATOM     11  C20 UNL     1      -1.175   0.038  -2.233  0.00  0.00    +0.000 C 
ATOM     12  N2  UNL     1      -2.016   1.070  -2.461  0.00  0.00    +0.000 NA
BRANCH   7  14
ATOM     13  C1  UNL     1      -3.256   3.834  -1.175  0.00  0.00    +0.000 C 
ATOM     14  C2  UNL     1      -3.822   2.543  -1.747  0.00  0.00    +0.000 C 
ENDBRANCH   7  14
BRANCH   9  15
ATOM     15  C6  UNL     1      -2.149  -1.066   1.238  0.00  0.00    +0.000 C 
ATOM     16  N1  UNL     1      -3.100  -0.809   2.083  0.00  0.00    +0.000 NA
BRANCH  16  17
ATOM     17  O1  UNL     1      -2.923  -1.602   3.222  0.00  0.00    +0.000 OA
ATOM     18  H   UNL     1      -3.528  -1.540   3.935  0.00  0.00    +0.000 HD
ENDBRANCH  16  17
ENDBRANCH   9  15
ENDBRANCH   1  10
BRANCH   6  19
ATOM     19  C14 UNL     1       1.721  -1.071   0.703  0.00  0.00    +0.000 C 
ATOM     20  O2  UNL     1       1.201  -1.717   1.612  0.00  0.00    +0.000 OA
BRANCH  19  21
ATOM     21  C15 UNL     1       2.815  -0.057   0.993  0.00  0.00    +0.000 C 
BRANCH  21  22
ATOM     22  C16 UNL     1       2.308   1.292   1.533  0.00  0.00    +0.000 C 
ATOM     23  C17 UNL     1       1.462   2.035   0.496  0.00  0.00    +0.000 C 
BRANCH  22  24
ATOM     24  C18 UNL     1       1.569   1.131   2.875  0.00  0.00    +0.000 C 
ATOM     25  C19 UNL     1       1.290   2.454   3.575  0.00  0.00    +0.000 C 
ENDBRANCH  22  24
ENDBRANCH  21  22
ENDBRANCH  19  21
ENDBRANCH   6  19
TORSDOF 8
