REMARK  Name = laboratorio_evolutivo\Gen4_Mutante_8.pdb
REMARK  12 active torsions:
REMARK  status: ('A' for Active; 'I' for Inactive)
REMARK    1  A    between atoms: C1_1  and  C2_2
REMARK    2  A    between atoms: C2_2  and  C3_3
REMARK    3  A    between atoms: C3_3  and  C4_4
REMARK    4  A    between atoms: C3_3  and  C5_5
REMARK    5  A    between atoms: C5_5  and  C6_6
REMARK    6  A    between atoms: C6_6  and  C7_8
REMARK    7  A    between atoms: C8_9  and  C9_10
REMARK    8  A    between atoms: C12_13  and  C13_14
REMARK    9  A    between atoms: C14_15  and  C15_16
REMARK   10  A    between atoms: N1_17  and  O2_18
REMARK   11  A    between atoms: C17_20  and  C18_21
REMARK   12  A    between atoms: C19_23  and  C20_24
REMARK                            x       y       z     vdW  Elec       q    Type
REMARK                         _______ _______ _______ _____ _____    ______ ____
ROOT
ATOM      1  C7  UNL     1       0.152  -1.870  -0.992  0.00  0.00    +0.000 C 
ATOM      2  C8  UNL     1       0.403  -3.380  -0.816  0.00  0.00    +0.000 C 
ATOM      3  C9  UNL     1       1.432  -3.743   0.257  0.00  0.00    +0.000 C 
ATOM      4  C10 UNL     1      -0.993  -3.899  -0.450  0.00  0.00    +0.000 C 
ATOM      5  C11 UNL     1      -1.669  -2.784   0.353  0.00  0.00    +0.000 C 
ATOM      6  C12 UNL     1      -0.793  -1.529   0.176  0.00  0.00    +0.000 C 
ENDROOT
BRANCH   6   7
ATOM      7  C13 UNL     1      -1.594  -0.237   0.130  0.00  0.00    +0.000 C 
ATOM      8  C14 UNL     1      -1.613   0.616   1.259  0.00  0.00    +0.000 C 
ATOM      9  C16 UNL     1      -2.283   1.838   1.251  0.00  0.00    +0.000 C 
ATOM     10  C17 UNL     1      -2.941   2.211   0.101  0.00  0.00    +0.000 C 
ATOM     11  C18 UNL     1      -3.653   3.526   0.024  0.00  0.00    +0.000 C 
ATOM     12  N2  UNL     1      -2.989   1.409  -0.981  0.00  0.00    +0.000 NA
ATOM     13  C19 UNL     1      -2.349   0.207  -0.966  0.00  0.00    +0.000 C 
ATOM     14  C20 UNL     1      -2.537  -0.558  -2.242  0.00  0.00    +0.000 C 
BRANCH   8  15
ATOM     15  C15 UNL     1      -0.993   0.212   2.541  0.00  0.00    +0.000 C 
ATOM     16  N1  UNL     1      -0.110   0.863   3.239  0.00  0.00    +0.000 NA
BRANCH  16  17
ATOM     17  O2  UNL     1       0.280   2.054   2.618  0.00  0.00    +0.000 OA
ATOM     18  H   UNL     1       0.913   2.610   3.027  0.00  0.00    +0.000 HD
ENDBRANCH  16  17
ENDBRANCH   8  15
ENDBRANCH   6   7
BRANCH   1  19
ATOM     19  C6  UNL     1       1.436  -1.066  -1.178  0.00  0.00    +0.000 C 
ATOM     20  O1  UNL     1       2.046  -1.163  -2.248  0.00  0.00    +0.000 OA
BRANCH  19  21
ATOM     21  C5  UNL     1       2.013  -0.253  -0.031  0.00  0.00    +0.000 C 
BRANCH  21  22
ATOM     22  C3  UNL     1       2.808   0.978  -0.510  0.00  0.00    +0.000 C 
ATOM     23  C4  UNL     1       3.632   1.532   0.658  0.00  0.00    +0.000 C 
BRANCH  22  25
ATOM     24  C1  UNL     1       2.556   3.254  -1.673  0.00  0.00    +0.000 C 
ATOM     25  C2  UNL     1       1.848   2.039  -1.090  0.00  0.00    +0.000 C 
ENDBRANCH  22  25
ENDBRANCH  21  22
ENDBRANCH  19  21
ENDBRANCH   1  19
TORSDOF 7
