REMARK  Name = laboratorio_evolutivo\Gen4_Mutante_5.pdb
REMARK  12 active torsions:
REMARK  status: ('A' for Active; 'I' for Inactive)
REMARK    1  A    between atoms: C1_1  and  C2_2
REMARK    2  A    between atoms: C2_2  and  C3_3
REMARK    3  A    between atoms: C3_3  and  C4_4
REMARK    4  A    between atoms: C3_3  and  C5_5
REMARK    5  A    between atoms: C5_5  and  C6_6
REMARK    6  A    between atoms: C5_5  and  C7_7
REMARK    7  A    between atoms: C7_7  and  C8_9
REMARK    8  A    between atoms: C9_10  and  C10_11
REMARK    9  A    between atoms: C13_14  and  C14_15
REMARK   10  A    between atoms: C16_18  and  C17_19
REMARK   11  A    between atoms: C19_21  and  C20_22
REMARK   12  A    between atoms: N2_23  and  O2_24
REMARK                            x       y       z     vdW  Elec       q    Type
REMARK                         _______ _______ _______ _____ _____    ______ ____
ROOT
ATOM      1  C8  UNL     1       0.133  -1.306  -0.685  0.00  0.00    +0.000 C 
ATOM      2  C9  UNL     1      -0.179  -2.795  -0.928  0.00  0.00    +0.000 C 
ATOM      3  C10 UNL     1       0.959  -3.653  -1.458  0.00  0.00    +0.000 C 
ATOM      4  C11 UNL     1      -0.734  -3.282   0.406  0.00  0.00    +0.000 C 
ATOM      5  C12 UNL     1      -1.633  -2.128   0.837  0.00  0.00    +0.000 C 
ATOM      6  C13 UNL     1      -0.883  -0.850   0.405  0.00  0.00    +0.000 C 
ENDROOT
BRANCH   6   7
ATOM      7  C14 UNL     1      -1.855   0.244   0.005  0.00  0.00    +0.000 C 
ATOM      8  C15 UNL     1      -2.371   0.324  -1.286  0.00  0.00    +0.000 C 
ATOM      9  N1  UNL     1      -3.240   1.267  -1.719  0.00  0.00    +0.000 NA
ATOM     10  C16 UNL     1      -3.671   2.184  -0.825  0.00  0.00    +0.000 C 
ATOM     11  C17 UNL     1      -4.634   3.227  -1.308  0.00  0.00    +0.000 C 
ATOM     12  C18 UNL     1      -3.265   2.170   0.500  0.00  0.00    +0.000 C 
ATOM     13  C19 UNL     1      -2.362   1.186   0.915  0.00  0.00    +0.000 C 
BRANCH  13  14
ATOM     14  C20 UNL     1      -1.919   1.212   2.326  0.00  0.00    +0.000 C 
ATOM     15  N2  UNL     1      -2.659   1.251   3.395  0.00  0.00    +0.000 NA
BRANCH  15  16
ATOM     16  O2  UNL     1      -4.025   1.181   3.102  0.00  0.00    +0.000 OA
ATOM     17  H   UNL     1      -4.655   1.201   3.796  0.00  0.00    +0.000 HD
ENDBRANCH  15  16
ENDBRANCH  13  14
ENDBRANCH   6   7
BRANCH   1  18
ATOM     18  C7  UNL     1       1.555  -1.028  -0.182  0.00  0.00    +0.000 C 
ATOM     19  O1  UNL     1       2.027  -1.653   0.766  0.00  0.00    +0.000 OA
BRANCH  18  20
ATOM     20  C5  UNL     1       2.337   0.070  -0.915  0.00  0.00    +0.000 C 
ATOM     21  C6  UNL     1       2.946  -0.527  -2.186  0.00  0.00    +0.000 C 
BRANCH  20  22
ATOM     22  C3  UNL     1       3.386   0.815  -0.043  0.00  0.00    +0.000 C 
ATOM     23  C4  UNL     1       4.614  -0.031   0.321  0.00  0.00    +0.000 C 
BRANCH  22  25
ATOM     24  C1  UNL     1       1.719   2.495   0.957  0.00  0.00    +0.000 C 
ATOM     25  C2  UNL     1       2.792   1.449   1.235  0.00  0.00    +0.000 C 
ENDBRANCH  22  25
ENDBRANCH  20  22
ENDBRANCH  18  20
ENDBRANCH   1  18
TORSDOF 7
