MODEL 1
REMARK VINA RESULT:    -6.692      0.000      0.000
REMARK INTER + INTRA:         -10.251
REMARK INTER:                  -9.039
REMARK INTRA:                  -1.212
REMARK UNBOUND:                -1.212
REMARK  Name = laboratorio_evolutivo\Gen4_Mutante_6.pdb
REMARK  11 active torsions:
REMARK  status: ('A' for Active; 'I' for Inactive)
REMARK    1  A    between atoms: C1_1  and  C2_2
REMARK    2  A    between atoms: C2_2  and  C3_3
REMARK    3  A    between atoms: C3_3  and  C4_4
REMARK    4  A    between atoms: C3_3  and  C5_5
REMARK    5  A    between atoms: C5_5  and  C6_6
REMARK    6  A    between atoms: C6_6  and  C7_8
REMARK    7  A    between atoms: C8_9  and  C9_10
REMARK    8  A    between atoms: C12_13  and  C13_14
REMARK    9  A    between atoms: C15_17  and  C16_18
REMARK   10  A    between atoms: C18_20  and  C19_21
REMARK   11  A    between atoms: C19_21  and  C20_22
REMARK                            x       y       z     vdW  Elec       q    Type
REMARK                         _______ _______ _______ _____ _____    ______ ____
ROOT
ATOM      1  C7  UNL     1       1.500   1.515  20.185  0.00  0.00    +0.000 C 
ATOM      2  C8  UNL     1       0.566   2.751  20.185  0.00  0.00    +0.000 C 
ATOM      3  C9  UNL     1       0.894   3.708  19.040  0.00  0.00    +0.000 C 
ATOM      4  C10 UNL     1      -0.858   2.191  20.062  0.00  0.00    +0.000 C 
ATOM      5  C11 UNL     1      -0.692   0.839  19.381  0.00  0.00    +0.000 C 
ATOM      6  C12 UNL     1       0.578   0.286  20.034  0.00  0.00    +0.000 C 
ENDROOT
BRANCH   6   7
ATOM      7  C13 UNL     1       1.218  -0.935  19.409  0.00  0.00    +0.000 C 
ATOM      8  C14 UNL     1       1.601  -0.844  18.069  0.00  0.00    +0.000 C 
ATOM      9  N1  UNL     1       2.204  -1.823  17.355  0.00  0.00    +0.000 NA
ATOM     10  C15 UNL     1       2.432  -2.998  17.971  0.00  0.00    +0.000 C 
ATOM     11  C16 UNL     1       3.070  -4.089  17.167  0.00  0.00    +0.000 C 
ATOM     12  C17 UNL     1       2.087  -3.210  19.295  0.00  0.00    +0.000 C 
ATOM     13  C18 UNL     1       1.482  -2.170  20.017  0.00  0.00    +0.000 C 
BRANCH  13  14
ATOM     14  C19 UNL     1       1.127  -2.481  21.421  0.00  0.00    +0.000 C 
ATOM     15  C20 UNL     1       2.244  -2.528  22.431  0.00  0.00    +0.000 C 
ATOM     16  O2  UNL     1      -0.036  -2.715  21.727  0.00  0.00    +0.000 OA
ENDBRANCH  13  14
ENDBRANCH   6   7
BRANCH   1  17
ATOM     17  C6  UNL     1       2.368   1.463  21.444  0.00  0.00    +0.000 C 
ATOM     18  O1  UNL     1       2.147   0.608  22.305  0.00  0.00    +0.000 OA
BRANCH  17  19
ATOM     19  C5  UNL     1       3.468   2.507  21.622  0.00  0.00    +0.000 C 
BRANCH  19  20
ATOM     20  C3  UNL     1       3.084   3.772  22.413  0.00  0.00    +0.000 C 
ATOM     21  C4  UNL     1       3.355   5.045  21.606  0.00  0.00    +0.000 C 
BRANCH  20  23
ATOM     22  C1  UNL     1       2.995   2.944  24.831  0.00  0.00    +0.000 C 
ATOM     23  C2  UNL     1       3.730   3.805  23.811  0.00  0.00    +0.000 C 
ENDBRANCH  20  23
ENDBRANCH  19  20
ENDBRANCH  17  19
ENDBRANCH   1  17
TORSDOF 6
ENDMDL
MODEL 2
REMARK VINA RESULT:    -6.550     23.573     25.736
REMARK INTER + INTRA:         -10.059
REMARK INTER:                  -8.095
REMARK INTRA:                  -1.963
REMARK UNBOUND:                -1.212
REMARK  Name = laboratorio_evolutivo\Gen4_Mutante_6.pdb
REMARK  11 active torsions:
REMARK  status: ('A' for Active; 'I' for Inactive)
REMARK    1  A    between atoms: C1_1  and  C2_2
REMARK    2  A    between atoms: C2_2  and  C3_3
REMARK    3  A    between atoms: C3_3  and  C4_4
REMARK    4  A    between atoms: C3_3  and  C5_5
REMARK    5  A    between atoms: C5_5  and  C6_6
REMARK    6  A    between atoms: C6_6  and  C7_8
REMARK    7  A    between atoms: C8_9  and  C9_10
REMARK    8  A    between atoms: C12_13  and  C13_14
REMARK    9  A    between atoms: C15_17  and  C16_18
REMARK   10  A    between atoms: C18_20  and  C19_21
REMARK   11  A    between atoms: C19_21  and  C20_22
REMARK                            x       y       z     vdW  Elec       q    Type
REMARK                         _______ _______ _______ _____ _____    ______ ____
ROOT
ATOM      1  C7  UNL     1      16.955  -7.289   1.786  0.00  0.00    +0.000 C 
ATOM      2  C8  UNL     1      16.485  -8.665   2.322  0.00  0.00    +0.000 C 
ATOM      3  C9  UNL     1      16.970  -8.912   3.750  0.00  0.00    +0.000 C 
ATOM      4  C10 UNL     1      14.952  -8.635   2.244  0.00  0.00    +0.000 C 
ATOM      5  C11 UNL     1      14.583  -7.159   2.302  0.00  0.00    +0.000 C 
ATOM      6  C12 UNL     1      15.670  -6.506   1.443  0.00  0.00    +0.000 C 
ENDROOT
BRANCH   6   7
ATOM      7  C13 UNL     1      15.796  -4.998   1.491  0.00  0.00    +0.000 C 
ATOM      8  C14 UNL     1      15.741  -4.389   2.747  0.00  0.00    +0.000 C 
ATOM      9  N1  UNL     1      15.856  -3.061   2.983  0.00  0.00    +0.000 NA
ATOM     10  C15 UNL     1      16.008  -2.248   1.921  0.00  0.00    +0.000 C 
ATOM     11  C16 UNL     1      16.103  -0.776   2.185  0.00  0.00    +0.000 C 
ATOM     12  C17 UNL     1      16.066  -2.735   0.626  0.00  0.00    +0.000 C 
ATOM     13  C18 UNL     1      15.965  -4.118   0.414  0.00  0.00    +0.000 C 
BRANCH  13  14
ATOM     14  C19 UNL     1      16.018  -4.558  -1.000  0.00  0.00    +0.000 C 
ATOM     15  C20 UNL     1      17.355  -4.524  -1.694  0.00  0.00    +0.000 C 
ATOM     16  O2  UNL     1      14.995  -4.910  -1.576  0.00  0.00    +0.000 OA
ENDBRANCH  13  14
ENDBRANCH   6   7
BRANCH   1  17
ATOM     17  C6  UNL     1      17.902  -7.442   0.593  0.00  0.00    +0.000 C 
ATOM     18  O1  UNL     1      17.482  -7.917  -0.464  0.00  0.00    +0.000 OA
BRANCH  17  19
ATOM     19  C5  UNL     1      19.364  -7.037   0.759  0.00  0.00    +0.000 C 
BRANCH  19  20
ATOM     20  C3  UNL     1      19.772  -6.514   2.150  0.00  0.00    +0.000 C 
ATOM     21  C4  UNL     1      20.095  -5.018   2.116  0.00  0.00    +0.000 C 
BRANCH  20  23
ATOM     22  C1  UNL     1      20.516  -7.958   4.126  0.00  0.00    +0.000 C 
ATOM     23  C2  UNL     1      20.900  -7.352   2.782  0.00  0.00    +0.000 C 
ENDBRANCH  20  23
ENDBRANCH  19  20
ENDBRANCH  17  19
ENDBRANCH   1  17
TORSDOF 6
ENDMDL
MODEL 3
REMARK VINA RESULT:    -6.549     25.258     27.598
REMARK INTER + INTRA:         -10.058
REMARK INTER:                  -8.170
REMARK INTRA:                  -1.888
REMARK UNBOUND:                -1.212
REMARK  Name = laboratorio_evolutivo\Gen4_Mutante_6.pdb
REMARK  11 active torsions:
REMARK  status: ('A' for Active; 'I' for Inactive)
REMARK    1  A    between atoms: C1_1  and  C2_2
REMARK    2  A    between atoms: C2_2  and  C3_3
REMARK    3  A    between atoms: C3_3  and  C4_4
REMARK    4  A    between atoms: C3_3  and  C5_5
REMARK    5  A    between atoms: C5_5  and  C6_6
REMARK    6  A    between atoms: C6_6  and  C7_8
REMARK    7  A    between atoms: C8_9  and  C9_10
REMARK    8  A    between atoms: C12_13  and  C13_14
REMARK    9  A    between atoms: C15_17  and  C16_18
REMARK   10  A    between atoms: C18_20  and  C19_21
REMARK   11  A    between atoms: C19_21  and  C20_22
REMARK                            x       y       z     vdW  Elec       q    Type
REMARK                         _______ _______ _______ _____ _____    ______ ____
ROOT
ATOM      1  C7  UNL     1      21.129  18.763  20.096  0.00  0.00    +0.000 C 
ATOM      2  C8  UNL     1      22.205  18.360  21.135  0.00  0.00    +0.000 C 
ATOM      3  C9  UNL     1      21.909  16.996  21.757  0.00  0.00    +0.000 C 
ATOM      4  C10 UNL     1      23.536  18.355  20.369  0.00  0.00    +0.000 C 
ATOM      5  C11 UNL     1      23.153  18.112  18.916  0.00  0.00    +0.000 C 
ATOM      6  C12 UNL     1      21.878  18.948  18.759  0.00  0.00    +0.000 C 
ENDROOT
BRANCH   6   7
ATOM      7  C13 UNL     1      21.046  18.738  17.512  0.00  0.00    +0.000 C 
ATOM      8  C14 UNL     1      20.115  17.698  17.529  0.00  0.00    +0.000 C 
ATOM      9  N1  UNL     1      19.275  17.376  16.518  0.00  0.00    +0.000 NA
ATOM     10  C15 UNL     1      19.355  18.099  15.385  0.00  0.00    +0.000 C 
ATOM     11  C16 UNL     1      18.445  17.719  14.257  0.00  0.00    +0.000 C 
ATOM     12  C17 UNL     1      20.247  19.149  15.246  0.00  0.00    +0.000 C 
ATOM     13  C18 UNL     1      21.092  19.472  16.318  0.00  0.00    +0.000 C 
BRANCH  13  14
ATOM     14  C19 UNL     1      22.029  20.594  16.085  0.00  0.00    +0.000 C 
ATOM     15  C20 UNL     1      21.446  21.979  15.962  0.00  0.00    +0.000 C 
ATOM     16  O2  UNL     1      23.231  20.384  15.973  0.00  0.00    +0.000 OA
ENDBRANCH  13  14
ENDBRANCH   6   7
BRANCH   1  17
ATOM     17  C6  UNL     1      20.361  20.012  20.532  0.00  0.00    +0.000 C 
ATOM     18  O1  UNL     1      19.520  19.931  21.430  0.00  0.00    +0.000 OA
BRANCH  17  19
ATOM     19  C5  UNL     1      20.630  21.330  19.808  0.00  0.00    +0.000 C 
BRANCH  19  20
ATOM     20  C3  UNL     1      19.389  22.151  19.407  0.00  0.00    +0.000 C 
ATOM     21  C4  UNL     1      18.625  21.489  18.258  0.00  0.00    +0.000 C 
BRANCH  20  23
ATOM     22  C1  UNL     1      18.973  24.198  17.932  0.00  0.00    +0.000 C 
ATOM     23  C2  UNL     1      19.732  23.626  19.122  0.00  0.00    +0.000 C 
ENDBRANCH  20  23
ENDBRANCH  19  20
ENDBRANCH  17  19
ENDBRANCH   1  17
TORSDOF 6
ENDMDL
MODEL 4
REMARK VINA RESULT:    -6.545      2.222      5.986
REMARK INTER + INTRA:         -10.053
REMARK INTER:                  -8.444
REMARK INTRA:                  -1.608
REMARK UNBOUND:                -1.212
REMARK  Name = laboratorio_evolutivo\Gen4_Mutante_6.pdb
REMARK  11 active torsions:
REMARK  status: ('A' for Active; 'I' for Inactive)
REMARK    1  A    between atoms: C1_1  and  C2_2
REMARK    2  A    between atoms: C2_2  and  C3_3
REMARK    3  A    between atoms: C3_3  and  C4_4
REMARK    4  A    between atoms: C3_3  and  C5_5
REMARK    5  A    between atoms: C5_5  and  C6_6
REMARK    6  A    between atoms: C6_6  and  C7_8
REMARK    7  A    between atoms: C8_9  and  C9_10
REMARK    8  A    between atoms: C12_13  and  C13_14
REMARK    9  A    between atoms: C15_17  and  C16_18
REMARK   10  A    between atoms: C18_20  and  C19_21
REMARK   11  A    between atoms: C19_21  and  C20_22
REMARK                            x       y       z     vdW  Elec       q    Type
REMARK                         _______ _______ _______ _____ _____    ______ ____
ROOT
ATOM      1  C7  UNL     1       0.629   0.684  19.195  0.00  0.00    +0.000 C 
ATOM      2  C8  UNL     1       0.575  -0.304  18.002  0.00  0.00    +0.000 C 
ATOM      3  C9  UNL     1      -0.562   0.033  17.038  0.00  0.00    +0.000 C 
ATOM      4  C10 UNL     1       1.945  -0.199  17.318  0.00  0.00    +0.000 C 
ATOM      5  C11 UNL     1       2.458   1.190  17.676  0.00  0.00    +0.000 C 
ATOM      6  C12 UNL     1       2.023   1.344  19.136  0.00  0.00    +0.000 C 
ENDROOT
BRANCH   6   7
ATOM      7  C13 UNL     1       2.117   2.721  19.759  0.00  0.00    +0.000 C 
ATOM      8  C14 UNL     1       1.456   3.765  19.109  0.00  0.00    +0.000 C 
ATOM      9  N1  UNL     1       1.414   5.051  19.529  0.00  0.00    +0.000 NA
ATOM     10  C15 UNL     1       2.086   5.366  20.653  0.00  0.00    +0.000 C 
ATOM     11  C16 UNL     1       2.062   6.797  21.096  0.00  0.00    +0.000 C 
ATOM     12  C17 UNL     1       2.787   4.416  21.378  0.00  0.00    +0.000 C 
ATOM     13  C18 UNL     1       2.796   3.087  20.929  0.00  0.00    +0.000 C 
BRANCH  13  14
ATOM     14  C19 UNL     1       3.583   2.136  21.748  0.00  0.00    +0.000 C 
ATOM     15  C20 UNL     1       3.258   2.043  23.217  0.00  0.00    +0.000 C 
ATOM     16  O2  UNL     1       4.480   1.476  21.238  0.00  0.00    +0.000 OA
ENDBRANCH  13  14
ENDBRANCH   6   7
BRANCH   1  17
ATOM     17  C6  UNL     1       0.353  -0.021  20.525  0.00  0.00    +0.000 C 
ATOM     18  O1  UNL     1      -0.799  -0.081  20.958  0.00  0.00    +0.000 OA
BRANCH  17  19
ATOM     19  C5  UNL     1       1.530  -0.599  21.308  0.00  0.00    +0.000 C 
BRANCH  19  20
ATOM     20  C3  UNL     1       1.578  -2.134  21.428  0.00  0.00    +0.000 C 
ATOM     21  C4  UNL     1       2.546  -2.582  22.527  0.00  0.00    +0.000 C 
BRANCH  20  23
ATOM     22  C1  UNL     1       0.678  -3.636  19.564  0.00  0.00    +0.000 C 
ATOM     23  C2  UNL     1       1.857  -2.818  20.076  0.00  0.00    +0.000 C 
ENDBRANCH  20  23
ENDBRANCH  19  20
ENDBRANCH  17  19
ENDBRANCH   1  17
TORSDOF 6
ENDMDL
MODEL 5
REMARK VINA RESULT:    -6.528     23.242     26.947
REMARK INTER + INTRA:         -10.029
REMARK INTER:                  -8.229
REMARK INTRA:                  -1.801
REMARK UNBOUND:                -1.212
REMARK  Name = laboratorio_evolutivo\Gen4_Mutante_6.pdb
REMARK  11 active torsions:
REMARK  status: ('A' for Active; 'I' for Inactive)
REMARK    1  A    between atoms: C1_1  and  C2_2
REMARK    2  A    between atoms: C2_2  and  C3_3
REMARK    3  A    between atoms: C3_3  and  C4_4
REMARK    4  A    between atoms: C3_3  and  C5_5
REMARK    5  A    between atoms: C5_5  and  C6_6
REMARK    6  A    between atoms: C6_6  and  C7_8
REMARK    7  A    between atoms: C8_9  and  C9_10
REMARK    8  A    between atoms: C12_13  and  C13_14
REMARK    9  A    between atoms: C15_17  and  C16_18
REMARK   10  A    between atoms: C18_20  and  C19_21
REMARK   11  A    between atoms: C19_21  and  C20_22
REMARK                            x       y       z     vdW  Elec       q    Type
REMARK                         _______ _______ _______ _____ _____    ______ ____
ROOT
ATOM      1  C7  UNL     1      18.259  -7.605   1.894  0.00  0.00    +0.000 C 
ATOM      2  C8  UNL     1      19.244  -7.113   2.984  0.00  0.00    +0.000 C 
ATOM      3  C9  UNL     1      20.142  -8.243   3.488  0.00  0.00    +0.000 C 
ATOM      4  C10 UNL     1      20.063  -5.994   2.325  0.00  0.00    +0.000 C 
ATOM      5  C11 UNL     1      20.010  -6.294   0.833  0.00  0.00    +0.000 C 
ATOM      6  C12 UNL     1      18.567  -6.767   0.634  0.00  0.00    +0.000 C 
ENDROOT
BRANCH   6   7
ATOM      7  C13 UNL     1      18.214  -7.421  -0.684  0.00  0.00    +0.000 C 
ATOM      8  C14 UNL     1      18.148  -8.816  -0.712  0.00  0.00    +0.000 C 
ATOM      9  N1  UNL     1      17.829  -9.567  -1.791  0.00  0.00    +0.000 NA
ATOM     10  C15 UNL     1      17.579  -8.926  -2.948  0.00  0.00    +0.000 C 
ATOM     11  C16 UNL     1      17.257  -9.764  -4.148  0.00  0.00    +0.000 C 
ATOM     12  C17 UNL     1      17.624  -7.546  -3.046  0.00  0.00    +0.000 C 
ATOM     13  C18 UNL     1      17.938  -6.792  -1.906  0.00  0.00    +0.000 C 
BRANCH  13  14
ATOM     14  C19 UNL     1      17.984  -5.324  -2.096  0.00  0.00    +0.000 C 
ATOM     15  C20 UNL     1      16.761  -4.530  -1.715  0.00  0.00    +0.000 C 
ATOM     16  O2  UNL     1      18.980  -4.793  -2.573  0.00  0.00    +0.000 OA
ENDBRANCH  13  14
ENDBRANCH   6   7
BRANCH   1  17
ATOM     17  C6  UNL     1      16.804  -7.488   2.353  0.00  0.00    +0.000 C 
ATOM     18  O1  UNL     1      16.301  -8.390   3.025  0.00  0.00    +0.000 OA
BRANCH  17  19
ATOM     19  C5  UNL     1      15.996  -6.265   1.926  0.00  0.00    +0.000 C 
BRANCH  19  20
ATOM     20  C3  UNL     1      16.050  -5.050   2.871  0.00  0.00    +0.000 C 
ATOM     21  C4  UNL     1      14.656  -4.667   3.376  0.00  0.00    +0.000 C 
BRANCH  20  23
ATOM     22  C1  UNL     1      16.592  -2.554   3.006  0.00  0.00    +0.000 C 
ATOM     23  C2  UNL     1      16.804  -3.859   2.249  0.00  0.00    +0.000 C 
ENDBRANCH  20  23
ENDBRANCH  19  20
ENDBRANCH  17  19
ENDBRANCH   1  17
TORSDOF 6
ENDMDL
MODEL 6
REMARK VINA RESULT:    -6.486      2.369      6.137
REMARK INTER + INTRA:          -9.972
REMARK INTER:                  -8.315
REMARK INTRA:                  -1.658
REMARK UNBOUND:                -1.212
REMARK  Name = laboratorio_evolutivo\Gen4_Mutante_6.pdb
REMARK  11 active torsions:
REMARK  status: ('A' for Active; 'I' for Inactive)
REMARK    1  A    between atoms: C1_1  and  C2_2
REMARK    2  A    between atoms: C2_2  and  C3_3
REMARK    3  A    between atoms: C3_3  and  C4_4
REMARK    4  A    between atoms: C3_3  and  C5_5
REMARK    5  A    between atoms: C5_5  and  C6_6
REMARK    6  A    between atoms: C6_6  and  C7_8
REMARK    7  A    between atoms: C8_9  and  C9_10
REMARK    8  A    between atoms: C12_13  and  C13_14
REMARK    9  A    between atoms: C15_17  and  C16_18
REMARK   10  A    between atoms: C18_20  and  C19_21
REMARK   11  A    between atoms: C19_21  and  C20_22
REMARK                            x       y       z     vdW  Elec       q    Type
REMARK                         _______ _______ _______ _____ _____    ______ ____
ROOT
ATOM      1  C7  UNL     1       0.576   1.392  19.225  0.00  0.00    +0.000 C 
ATOM      2  C8  UNL     1       0.396   1.297  17.689  0.00  0.00    +0.000 C 
ATOM      3  C9  UNL     1      -0.533   2.389  17.160  0.00  0.00    +0.000 C 
ATOM      4  C10 UNL     1       1.808   1.423  17.100  0.00  0.00    +0.000 C 
ATOM      5  C11 UNL     1       2.605   2.189  18.148  0.00  0.00    +0.000 C 
ATOM      6  C12 UNL     1       2.088   1.597  19.463  0.00  0.00    +0.000 C 
ENDROOT
BRANCH   6   7
ATOM      7  C13 UNL     1       2.453   2.309  20.748  0.00  0.00    +0.000 C 
ATOM      8  C14 UNL     1       3.062   1.552  21.751  0.00  0.00    +0.000 C 
ATOM      9  N1  UNL     1       3.474   2.022  22.951  0.00  0.00    +0.000 NA
ATOM     10  C15 UNL     1       3.257   3.323  23.222  0.00  0.00    +0.000 C 
ATOM     11  C16 UNL     1       3.686   3.830  24.565  0.00  0.00    +0.000 C 
ATOM     12  C17 UNL     1       2.652   4.171  22.310  0.00  0.00    +0.000 C 
ATOM     13  C18 UNL     1       2.253   3.660  21.066  0.00  0.00    +0.000 C 
BRANCH  13  14
ATOM     14  C19 UNL     1       1.597   4.625  20.153  0.00  0.00    +0.000 C 
ATOM     15  C20 UNL     1       0.093   4.715  20.196  0.00  0.00    +0.000 C 
ATOM     16  O2  UNL     1       2.267   5.299  19.380  0.00  0.00    +0.000 OA
ENDBRANCH  13  14
ENDBRANCH   6   7
BRANCH   1  17
ATOM     17  C6  UNL     1       0.019   0.157  19.937  0.00  0.00    +0.000 C 
ATOM     18  O1  UNL     1      -0.527   0.278  21.035  0.00  0.00    +0.000 OA
BRANCH  17  19
ATOM     19  C5  UNL     1       0.193  -1.211  19.280  0.00  0.00    +0.000 C 
BRANCH  19  20
ATOM     20  C3  UNL     1       1.625  -1.780  19.264  0.00  0.00    +0.000 C 
ATOM     21  C4  UNL     1       1.987  -2.352  17.891  0.00  0.00    +0.000 C 
BRANCH  20  23
ATOM     22  C1  UNL     1       2.216  -2.109  21.730  0.00  0.00    +0.000 C 
ATOM     23  C2  UNL     1       1.867  -2.783  20.409  0.00  0.00    +0.000 C 
ENDBRANCH  20  23
ENDBRANCH  19  20
ENDBRANCH  17  19
ENDBRANCH   1  17
TORSDOF 6
ENDMDL
MODEL 7
REMARK VINA RESULT:    -6.476     24.092     26.895
REMARK INTER + INTRA:          -9.959
REMARK INTER:                  -8.533
REMARK INTRA:                  -1.426
REMARK UNBOUND:                -1.212
REMARK  Name = laboratorio_evolutivo\Gen4_Mutante_6.pdb
REMARK  11 active torsions:
REMARK  status: ('A' for Active; 'I' for Inactive)
REMARK    1  A    between atoms: C1_1  and  C2_2
REMARK    2  A    between atoms: C2_2  and  C3_3
REMARK    3  A    between atoms: C3_3  and  C4_4
REMARK    4  A    between atoms: C3_3  and  C5_5
REMARK    5  A    between atoms: C5_5  and  C6_6
REMARK    6  A    between atoms: C6_6  and  C7_8
REMARK    7  A    between atoms: C8_9  and  C9_10
REMARK    8  A    between atoms: C12_13  and  C13_14
REMARK    9  A    between atoms: C15_17  and  C16_18
REMARK   10  A    between atoms: C18_20  and  C19_21
REMARK   11  A    between atoms: C19_21  and  C20_22
REMARK                            x       y       z     vdW  Elec       q    Type
REMARK                         _______ _______ _______ _____ _____    ______ ____
ROOT
ATOM      1  C7  UNL     1      16.792  -6.496   1.347  0.00  0.00    +0.000 C 
ATOM      2  C8  UNL     1      15.932  -5.568   2.241  0.00  0.00    +0.000 C 
ATOM      3  C9  UNL     1      16.459  -4.134   2.241  0.00  0.00    +0.000 C 
ATOM      4  C10 UNL     1      14.509  -5.647   1.669  0.00  0.00    +0.000 C 
ATOM      5  C11 UNL     1      14.694  -6.036   0.208  0.00  0.00    +0.000 C 
ATOM      6  C12 UNL     1      15.835  -7.055   0.272  0.00  0.00    +0.000 C 
ENDROOT
BRANCH   6   7
ATOM      7  C13 UNL     1      16.488  -7.465  -1.031  0.00  0.00    +0.000 C 
ATOM      8  C14 UNL     1      16.396  -8.808  -1.401  0.00  0.00    +0.000 C 
ATOM      9  N1  UNL     1      16.899  -9.348  -2.535  0.00  0.00    +0.000 NA
ATOM     10  C15 UNL     1      17.572  -8.534  -3.371  0.00  0.00    +0.000 C 
ATOM     11  C16 UNL     1      18.155  -9.144  -4.609  0.00  0.00    +0.000 C 
ATOM     12  C17 UNL     1      17.737  -7.186  -3.106  0.00  0.00    +0.000 C 
ATOM     13  C18 UNL     1      17.187  -6.649  -1.932  0.00  0.00    +0.000 C 
BRANCH  13  14
ATOM     14  C19 UNL     1      17.423  -5.204  -1.711  0.00  0.00    +0.000 C 
ATOM     15  C20 UNL     1      18.749  -4.793  -1.124  0.00  0.00    +0.000 C 
ATOM     16  O2  UNL     1      16.550  -4.387  -1.977  0.00  0.00    +0.000 OA
ENDBRANCH  13  14
ENDBRANCH   6   7
BRANCH   1  17
ATOM     17  C6  UNL     1      17.480  -7.590   2.165  0.00  0.00    +0.000 C 
ATOM     18  O1  UNL     1      16.822  -8.266   2.959  0.00  0.00    +0.000 OA
BRANCH  17  19
ATOM     19  C5  UNL     1      18.986  -7.790   2.006  0.00  0.00    +0.000 C 
BRANCH  19  20
ATOM     20  C3  UNL     1      19.887  -6.875   2.859  0.00  0.00    +0.000 C 
ATOM     21  C4  UNL     1      20.411  -5.688   2.048  0.00  0.00    +0.000 C 
BRANCH  20  23
ATOM     22  C1  UNL     1      20.496  -8.799   4.431  0.00  0.00    +0.000 C 
ATOM     23  C2  UNL     1      21.012  -7.657   3.563  0.00  0.00    +0.000 C 
ENDBRANCH  20  23
ENDBRANCH  19  20
ENDBRANCH  17  19
ENDBRANCH   1  17
TORSDOF 6
ENDMDL
MODEL 8
REMARK VINA RESULT:    -6.424      2.457      5.118
REMARK INTER + INTRA:          -9.888
REMARK INTER:                  -7.917
REMARK INTRA:                  -1.971
REMARK UNBOUND:                -1.212
REMARK  Name = laboratorio_evolutivo\Gen4_Mutante_6.pdb
REMARK  11 active torsions:
REMARK  status: ('A' for Active; 'I' for Inactive)
REMARK    1  A    between atoms: C1_1  and  C2_2
REMARK    2  A    between atoms: C2_2  and  C3_3
REMARK    3  A    between atoms: C3_3  and  C4_4
REMARK    4  A    between atoms: C3_3  and  C5_5
REMARK    5  A    between atoms: C5_5  and  C6_6
REMARK    6  A    between atoms: C6_6  and  C7_8
REMARK    7  A    between atoms: C8_9  and  C9_10
REMARK    8  A    between atoms: C12_13  and  C13_14
REMARK    9  A    between atoms: C15_17  and  C16_18
REMARK   10  A    between atoms: C18_20  and  C19_21
REMARK   11  A    between atoms: C19_21  and  C20_22
REMARK                            x       y       z     vdW  Elec       q    Type
REMARK                         _______ _______ _______ _____ _____    ______ ____
ROOT
ATOM      1  C7  UNL     1       1.652   1.831  19.202  0.00  0.00    +0.000 C 
ATOM      2  C8  UNL     1       2.703   2.868  19.670  0.00  0.00    +0.000 C 
ATOM      3  C9  UNL     1       2.048   4.165  20.143  0.00  0.00    +0.000 C 
ATOM      4  C10 UNL     1       3.481   2.184  20.803  0.00  0.00    +0.000 C 
ATOM      5  C11 UNL     1       2.524   1.141  21.363  0.00  0.00    +0.000 C 
ATOM      6  C12 UNL     1       1.846   0.594  20.104  0.00  0.00    +0.000 C 
ENDROOT
BRANCH   6   7
ATOM      7  C13 UNL     1       0.621  -0.278  20.284  0.00  0.00    +0.000 C 
ATOM      8  C14 UNL     1      -0.621   0.358  20.312  0.00  0.00    +0.000 C 
ATOM      9  N1  UNL     1      -1.818  -0.259  20.444  0.00  0.00    +0.000 NA
ATOM     10  C15 UNL     1      -1.820  -1.597  20.588  0.00  0.00    +0.000 C 
ATOM     11  C16 UNL     1      -3.146  -2.272  20.765  0.00  0.00    +0.000 C 
ATOM     12  C17 UNL     1      -0.649  -2.337  20.585  0.00  0.00    +0.000 C 
ATOM     13  C18 UNL     1       0.576  -1.672  20.427  0.00  0.00    +0.000 C 
BRANCH  13  14
ATOM     14  C19 UNL     1       1.783  -2.530  20.454  0.00  0.00    +0.000 C 
ATOM     15  C20 UNL     1       2.147  -3.265  19.190  0.00  0.00    +0.000 C 
ATOM     16  O2  UNL     1       2.437  -2.646  21.484  0.00  0.00    +0.000 OA
ENDBRANCH  13  14
ENDBRANCH   6   7
BRANCH   1  17
ATOM     17  C6  UNL     1       1.794   1.517  17.711  0.00  0.00    +0.000 C 
ATOM     18  O1  UNL     1       1.478   2.365  16.874  0.00  0.00    +0.000 OA
BRANCH  17  19
ATOM     19  C5  UNL     1       2.288   0.133  17.296  0.00  0.00    +0.000 C 
BRANCH  19  20
ATOM     20  C3  UNL     1       1.437  -0.607  16.246  0.00  0.00    +0.000 C 
ATOM     21  C4  UNL     1       0.055  -0.970  16.796  0.00  0.00    +0.000 C 
BRANCH  20  23
ATOM     22  C1  UNL     1       3.660  -1.845  15.986  0.00  0.00    +0.000 C 
ATOM     23  C2  UNL     1       2.175  -1.818  15.644  0.00  0.00    +0.000 C 
ENDBRANCH  20  23
ENDBRANCH  19  20
ENDBRANCH  17  19
ENDBRANCH   1  17
TORSDOF 6
ENDMDL
MODEL 9
REMARK VINA RESULT:    -6.376      2.013      3.172
REMARK INTER + INTRA:          -9.824
REMARK INTER:                  -7.794
REMARK INTRA:                  -2.029
REMARK UNBOUND:                -1.212
REMARK  Name = laboratorio_evolutivo\Gen4_Mutante_6.pdb
REMARK  11 active torsions:
REMARK  status: ('A' for Active; 'I' for Inactive)
REMARK    1  A    between atoms: C1_1  and  C2_2
REMARK    2  A    between atoms: C2_2  and  C3_3
REMARK    3  A    between atoms: C3_3  and  C4_4
REMARK    4  A    between atoms: C3_3  and  C5_5
REMARK    5  A    between atoms: C5_5  and  C6_6
REMARK    6  A    between atoms: C6_6  and  C7_8
REMARK    7  A    between atoms: C8_9  and  C9_10
REMARK    8  A    between atoms: C12_13  and  C13_14
REMARK    9  A    between atoms: C15_17  and  C16_18
REMARK   10  A    between atoms: C18_20  and  C19_21
REMARK   11  A    between atoms: C19_21  and  C20_22
REMARK                            x       y       z     vdW  Elec       q    Type
REMARK                         _______ _______ _______ _____ _____    ______ ____
ROOT
ATOM      1  C7  UNL     1       1.063   0.497  19.156  0.00  0.00    +0.000 C 
ATOM      2  C8  UNL     1       1.180   1.885  18.479  0.00  0.00    +0.000 C 
ATOM      3  C9  UNL     1       2.623   2.388  18.464  0.00  0.00    +0.000 C 
ATOM      4  C10 UNL     1       0.633   1.698  17.057  0.00  0.00    +0.000 C 
ATOM      5  C11 UNL     1       0.827   0.219  16.753  0.00  0.00    +0.000 C 
ATOM      6  C12 UNL     1       0.476  -0.449  18.086  0.00  0.00    +0.000 C 
ENDROOT
BRANCH   6   7
ATOM      7  C13 UNL     1       0.820  -1.913  18.254  0.00  0.00    +0.000 C 
ATOM      8  C14 UNL     1       1.944  -2.391  17.577  0.00  0.00    +0.000 C 
ATOM      9  N1  UNL     1       2.411  -3.660  17.625  0.00  0.00    +0.000 NA
ATOM     10  C15 UNL     1       1.725  -4.552  18.364  0.00  0.00    +0.000 C 
ATOM     11  C16 UNL     1       2.229  -5.963  18.389  0.00  0.00    +0.000 C 
ATOM     12  C17 UNL     1       0.589  -4.198  19.073  0.00  0.00    +0.000 C 
ATOM     13  C18 UNL     1       0.140  -2.870  19.020  0.00  0.00    +0.000 C 
BRANCH  13  14
ATOM     14  C19 UNL     1      -1.091  -2.576  19.789  0.00  0.00    +0.000 C 
ATOM     15  C20 UNL     1      -2.312  -2.146  19.017  0.00  0.00    +0.000 C 
ATOM     16  O2  UNL     1      -1.092  -2.658  21.012  0.00  0.00    +0.000 OA
ENDBRANCH  13  14
ENDBRANCH   6   7
BRANCH   1  17
ATOM     17  C6  UNL     1       0.218   0.559  20.430  0.00  0.00    +0.000 C 
ATOM     18  O1  UNL     1      -0.916   1.041  20.389  0.00  0.00    +0.000 OA
BRANCH  17  19
ATOM     19  C5  UNL     1       0.824   0.058  21.739  0.00  0.00    +0.000 C 
BRANCH  19  20
ATOM     20  C3  UNL     1       2.261  -0.493  21.657  0.00  0.00    +0.000 C 
ATOM     21  C4  UNL     1       2.309  -1.988  21.982  0.00  0.00    +0.000 C 
BRANCH  20  23
ATOM     22  C1  UNL     1       3.773   1.566  21.775  0.00  0.00    +0.000 C 
ATOM     23  C2  UNL     1       3.252   0.332  22.501  0.00  0.00    +0.000 C 
ENDBRANCH  20  23
ENDBRANCH  19  20
ENDBRANCH  17  19
ENDBRANCH   1  17
TORSDOF 6
ENDMDL
