REMARK  Name = laboratorio_evolutivo\Gen4_Mutante_4.pdb
REMARK  12 active torsions:
REMARK  status: ('A' for Active; 'I' for Inactive)
REMARK    1  A    between atoms: C1_1  and  C2_2
REMARK    2  A    between atoms: C2_2  and  C3_3
REMARK    3  A    between atoms: C3_3  and  C4_4
REMARK    4  A    between atoms: C4_4  and  C5_5
REMARK    5  A    between atoms: C4_4  and  C6_6
REMARK    6  A    between atoms: C6_6  and  C7_7
REMARK    7  A    between atoms: C7_7  and  C8_9
REMARK    8  A    between atoms: C9_10  and  C10_11
REMARK    9  A    between atoms: C13_14  and  C14_15
REMARK   10  A    between atoms: C16_18  and  C17_19
REMARK   11  A    between atoms: C19_21  and  C20_22
REMARK   12  A    between atoms: N2_23  and  O2_24
REMARK                            x       y       z     vdW  Elec       q    Type
REMARK                         _______ _______ _______ _____ _____    ______ ____
ROOT
ATOM      1  C8  UNL     1      -0.678  -1.078  -0.154  0.00  0.00    +0.000 C 
ATOM      2  C9  UNL     1      -0.282  -2.452   0.406  0.00  0.00    +0.000 C 
ATOM      3  C10 UNL     1      -0.326  -3.562  -0.636  0.00  0.00    +0.000 C 
ATOM      4  C11 UNL     1      -1.296  -2.670   1.526  0.00  0.00    +0.000 C 
ATOM      5  C12 UNL     1      -1.434  -1.300   2.182  0.00  0.00    +0.000 C 
ATOM      6  C13 UNL     1      -1.103  -0.264   1.090  0.00  0.00    +0.000 C 
ENDROOT
BRANCH   6   7
ATOM      7  C14 UNL     1      -2.181   0.766   0.827  0.00  0.00    +0.000 C 
ATOM      8  C15 UNL     1      -1.868   2.114   1.001  0.00  0.00    +0.000 C 
ATOM      9  N1  UNL     1      -2.711   3.147   0.770  0.00  0.00    +0.000 NA
ATOM     10  C16 UNL     1      -3.949   2.858   0.316  0.00  0.00    +0.000 C 
ATOM     11  C17 UNL     1      -4.871   4.007   0.041  0.00  0.00    +0.000 C 
ATOM     12  C18 UNL     1      -4.372   1.556   0.109  0.00  0.00    +0.000 C 
ATOM     13  C19 UNL     1      -3.480   0.512   0.369  0.00  0.00    +0.000 C 
BRANCH  13  14
ATOM     14  C20 UNL     1      -4.002  -0.854   0.192  0.00  0.00    +0.000 C 
ATOM     15  N2  UNL     1      -4.388  -1.408  -0.918  0.00  0.00    +0.000 NA
BRANCH  15  16
ATOM     16  O2  UNL     1      -4.203  -0.556  -2.012  0.00  0.00    +0.000 OA
ATOM     17  H   UNL     1      -4.443  -0.839  -2.872  0.00  0.00    +0.000 HD
ENDBRANCH  15  16
ENDBRANCH  13  14
ENDBRANCH   6   7
BRANCH   1  18
ATOM     18  C7  UNL     1       0.450  -0.449  -0.971  0.00  0.00    +0.000 C 
ATOM     19  O1  UNL     1       0.361  -0.398  -2.200  0.00  0.00    +0.000 OA
BRANCH  18  20
ATOM     20  C6  UNL     1       1.671   0.103  -0.246  0.00  0.00    +0.000 C 
BRANCH  20  21
ATOM     21  C4  UNL     1       2.955   0.073  -1.097  0.00  0.00    +0.000 C 
ATOM     22  C5  UNL     1       3.420  -1.372  -1.311  0.00  0.00    +0.000 C 
BRANCH  21  23
ATOM     23  C3  UNL     1       4.041   0.928  -0.411  0.00  0.00    +0.000 C 
BRANCH  23  25
ATOM     24  C1  UNL     1       6.297   2.039  -0.581  0.00  0.00    +0.000 C 
ATOM     25  C2  UNL     1       5.318   1.079  -1.240  0.00  0.00    +0.000 C 
ENDBRANCH  23  25
ENDBRANCH  21  23
ENDBRANCH  20  21
ENDBRANCH  18  20
ENDBRANCH   1  18
TORSDOF 8
