MODEL 1
REMARK VINA RESULT:    -6.330      0.000      0.000
REMARK INTER + INTRA:         -10.236
REMARK INTER:                  -8.735
REMARK INTRA:                  -1.501
REMARK UNBOUND:                -1.501
REMARK  Name = laboratorio_evolutivo\Gen4_Mutante_8.pdb
REMARK  12 active torsions:
REMARK  status: ('A' for Active; 'I' for Inactive)
REMARK    1  A    between atoms: C1_1  and  C2_2
REMARK    2  A    between atoms: C2_2  and  C3_3
REMARK    3  A    between atoms: C3_3  and  C4_4
REMARK    4  A    between atoms: C3_3  and  C5_5
REMARK    5  A    between atoms: C5_5  and  C6_6
REMARK    6  A    between atoms: C6_6  and  C7_8
REMARK    7  A    between atoms: C8_9  and  C9_10
REMARK    8  A    between atoms: C12_13  and  C13_14
REMARK    9  A    between atoms: C14_15  and  C15_16
REMARK   10  A    between atoms: N1_17  and  O2_18
REMARK   11  A    between atoms: C17_20  and  C18_21
REMARK   12  A    between atoms: C19_23  and  C20_24
REMARK                            x       y       z     vdW  Elec       q    Type
REMARK                         _______ _______ _______ _____ _____    ______ ____
ROOT
ATOM      1  C7  UNL     1      -0.180  -2.285  20.268  0.00  0.00    +0.000 C 
ATOM      2  C8  UNL     1      -0.380  -3.420  19.246  0.00  0.00    +0.000 C 
ATOM      3  C9  UNL     1      -1.320  -3.086  18.085  0.00  0.00    +0.000 C 
ATOM      4  C10 UNL     1       1.051  -3.668  18.753  0.00  0.00    +0.000 C 
ATOM      5  C11 UNL     1       1.755  -2.308  18.779  0.00  0.00    +0.000 C 
ATOM      6  C12 UNL     1       0.838  -1.360  19.575  0.00  0.00    +0.000 C 
ENDROOT
BRANCH   6   7
ATOM      7  C13 UNL     1       1.602  -0.341  20.407  0.00  0.00    +0.000 C 
ATOM      8  C14 UNL     1       1.688   1.001  19.966  0.00  0.00    +0.000 C 
ATOM      9  C16 UNL     1       2.325   1.987  20.717  0.00  0.00    +0.000 C 
ATOM     10  C17 UNL     1       2.884   1.626  21.923  0.00  0.00    +0.000 C 
ATOM     11  C18 UNL     1       3.556   2.648  22.786  0.00  0.00    +0.000 C 
ATOM     12  N2  UNL     1       2.867   0.351  22.359  0.00  0.00    +0.000 NA
ATOM     13  C19 UNL     1       2.259  -0.615  21.616  0.00  0.00    +0.000 C 
ATOM     14  C20 UNL     1       2.367  -1.973  22.243  0.00  0.00    +0.000 C 
BRANCH   8  15
ATOM     15  C15 UNL     1       1.178   1.410  18.638  0.00  0.00    +0.000 C 
ATOM     16  N1  UNL     1       1.844   1.509  17.525  0.00  0.00    +0.000 NA
BRANCH  16  17
ATOM     17  O2  UNL     1       3.201   1.219  17.695  0.00  0.00    +0.000 OA
ATOM     18  H   UNL     1       3.468   0.567  18.312  0.00  0.00    +0.000 HD
ENDBRANCH  16  17
ENDBRANCH   8  15
ENDBRANCH   6   7
BRANCH   1  19
ATOM     19  C6  UNL     1      -1.493  -1.704  20.784  0.00  0.00    +0.000 C 
ATOM     20  O1  UNL     1      -2.290  -2.455  21.356  0.00  0.00    +0.000 OA
BRANCH  19  21
ATOM     21  C5  UNL     1      -1.864  -0.257  20.501  0.00  0.00    +0.000 C 
BRANCH  21  22
ATOM     22  C3  UNL     1      -2.989  -0.121  19.456  0.00  0.00    +0.000 C 
ATOM     23  C4  UNL     1      -2.402   0.431  18.152  0.00  0.00    +0.000 C 
BRANCH  22  25
ATOM     24  C1  UNL     1      -5.301   0.003  20.567  0.00  0.00    +0.000 C 
ATOM     25  C2  UNL     1      -4.118   0.778  20.003  0.00  0.00    +0.000 C 
ENDBRANCH  22  25
ENDBRANCH  21  22
ENDBRANCH  19  21
ENDBRANCH   1  19
TORSDOF 7
ENDMDL
MODEL 2
REMARK VINA RESULT:    -6.307      2.243      4.867
REMARK INTER + INTRA:         -10.205
REMARK INTER:                  -8.735
REMARK INTRA:                  -1.470
REMARK UNBOUND:                -1.501
REMARK  Name = laboratorio_evolutivo\Gen4_Mutante_8.pdb
REMARK  12 active torsions:
REMARK  status: ('A' for Active; 'I' for Inactive)
REMARK    1  A    between atoms: C1_1  and  C2_2
REMARK    2  A    between atoms: C2_2  and  C3_3
REMARK    3  A    between atoms: C3_3  and  C4_4
REMARK    4  A    between atoms: C3_3  and  C5_5
REMARK    5  A    between atoms: C5_5  and  C6_6
REMARK    6  A    between atoms: C6_6  and  C7_8
REMARK    7  A    between atoms: C8_9  and  C9_10
REMARK    8  A    between atoms: C12_13  and  C13_14
REMARK    9  A    between atoms: C14_15  and  C15_16
REMARK   10  A    between atoms: N1_17  and  O2_18
REMARK   11  A    between atoms: C17_20  and  C18_21
REMARK   12  A    between atoms: C19_23  and  C20_24
REMARK                            x       y       z     vdW  Elec       q    Type
REMARK                         _______ _______ _______ _____ _____    ______ ____
ROOT
ATOM      1  C7  UNL     1       1.512  -2.083  19.498  0.00  0.00    +0.000 C 
ATOM      2  C8  UNL     1       2.152  -3.146  18.584  0.00  0.00    +0.000 C 
ATOM      3  C9  UNL     1       1.480  -4.520  18.623  0.00  0.00    +0.000 C 
ATOM      4  C10 UNL     1       2.024  -2.500  17.199  0.00  0.00    +0.000 C 
ATOM      5  C11 UNL     1       0.724  -1.691  17.220  0.00  0.00    +0.000 C 
ATOM      6  C12 UNL     1       0.282  -1.619  18.694  0.00  0.00    +0.000 C 
ENDROOT
BRANCH   6   7
ATOM      7  C13 UNL     1      -0.390  -0.304  19.058  0.00  0.00    +0.000 C 
ATOM      8  C14 UNL     1      -1.740  -0.301  19.481  0.00  0.00    +0.000 C 
ATOM      9  C16 UNL     1      -2.387   0.867  19.881  0.00  0.00    +0.000 C 
ATOM     10  C17 UNL     1      -1.675   2.045  19.857  0.00  0.00    +0.000 C 
ATOM     11  C18 UNL     1      -2.308   3.326  20.304  0.00  0.00    +0.000 C 
ATOM     12  N2  UNL     1      -0.402   2.096  19.417  0.00  0.00    +0.000 NA
ATOM     13  C19 UNL     1       0.223   0.957  19.009  0.00  0.00    +0.000 C 
ATOM     14  C20 UNL     1       1.620   1.211  18.527  0.00  0.00    +0.000 C 
BRANCH   8  15
ATOM     15  C15 UNL     1      -2.565  -1.529  19.437  0.00  0.00    +0.000 C 
ATOM     16  N1  UNL     1      -2.895  -2.303  20.429  0.00  0.00    +0.000 NA
BRANCH  16  17
ATOM     17  O2  UNL     1      -2.331  -1.882  21.637  0.00  0.00    +0.000 OA
ATOM     18  H   UNL     1      -1.777  -2.461  22.122  0.00  0.00    +0.000 HD
ENDBRANCH  16  17
ENDBRANCH   8  15
ENDBRANCH   6   7
BRANCH   1  19
ATOM     19  C6  UNL     1       1.332  -2.559  20.937  0.00  0.00    +0.000 C 
ATOM     20  O1  UNL     1       0.292  -3.152  21.240  0.00  0.00    +0.000 OA
BRANCH  19  21
ATOM     21  C5  UNL     1       2.360  -2.209  22.001  0.00  0.00    +0.000 C 
BRANCH  21  22
ATOM     22  C3  UNL     1       2.224  -0.761  22.512  0.00  0.00    +0.000 C 
ATOM     23  C4  UNL     1       0.773  -0.299  22.338  0.00  0.00    +0.000 C 
BRANCH  22  25
ATOM     24  C1  UNL     1       3.395   1.523  22.424  0.00  0.00    +0.000 C 
ATOM     25  C2  UNL     1       3.214   0.161  21.768  0.00  0.00    +0.000 C 
ENDBRANCH  22  25
ENDBRANCH  21  22
ENDBRANCH  19  21
ENDBRANCH   1  19
TORSDOF 7
ENDMDL
MODEL 3
REMARK VINA RESULT:    -6.277      1.518      1.865
REMARK INTER + INTRA:         -10.164
REMARK INTER:                  -8.928
REMARK INTRA:                  -1.236
REMARK UNBOUND:                -1.501
REMARK  Name = laboratorio_evolutivo\Gen4_Mutante_8.pdb
REMARK  12 active torsions:
REMARK  status: ('A' for Active; 'I' for Inactive)
REMARK    1  A    between atoms: C1_1  and  C2_2
REMARK    2  A    between atoms: C2_2  and  C3_3
REMARK    3  A    between atoms: C3_3  and  C4_4
REMARK    4  A    between atoms: C3_3  and  C5_5
REMARK    5  A    between atoms: C5_5  and  C6_6
REMARK    6  A    between atoms: C6_6  and  C7_8
REMARK    7  A    between atoms: C8_9  and  C9_10
REMARK    8  A    between atoms: C12_13  and  C13_14
REMARK    9  A    between atoms: C14_15  and  C15_16
REMARK   10  A    between atoms: N1_17  and  O2_18
REMARK   11  A    between atoms: C17_20  and  C18_21
REMARK   12  A    between atoms: C19_23  and  C20_24
REMARK                            x       y       z     vdW  Elec       q    Type
REMARK                         _______ _______ _______ _____ _____    ______ ____
ROOT
ATOM      1  C7  UNL     1      -0.605  -0.711  19.875  0.00  0.00    +0.000 C 
ATOM      2  C8  UNL     1      -0.835  -1.749  18.760  0.00  0.00    +0.000 C 
ATOM      3  C9  UNL     1      -1.379  -1.179  17.448  0.00  0.00    +0.000 C 
ATOM      4  C10 UNL     1       0.568  -2.340  18.574  0.00  0.00    +0.000 C 
ATOM      5  C11 UNL     1       1.553  -1.199  18.844  0.00  0.00    +0.000 C 
ATOM      6  C12 UNL     1       0.735  -0.060  19.482  0.00  0.00    +0.000 C 
ENDROOT
BRANCH   6   7
ATOM      7  C13 UNL     1       1.512   0.727  20.526  0.00  0.00    +0.000 C 
ATOM      8  C14 UNL     1       1.736   2.111  20.335  0.00  0.00    +0.000 C 
ATOM      9  C16 UNL     1       2.392   2.892  21.286  0.00  0.00    +0.000 C 
ATOM     10  C17 UNL     1       2.827   2.281  22.440  0.00  0.00    +0.000 C 
ATOM     11  C18 UNL     1       3.511   3.075  23.509  0.00  0.00    +0.000 C 
ATOM     12  N2  UNL     1       2.677   0.958  22.642  0.00  0.00    +0.000 NA
ATOM     13  C19 UNL     1       2.053   0.192  21.705  0.00  0.00    +0.000 C 
ATOM     14  C20 UNL     1       2.005  -1.257  22.088  0.00  0.00    +0.000 C 
BRANCH   8  15
ATOM     15  C15 UNL     1       1.363   2.786  19.072  0.00  0.00    +0.000 C 
ATOM     16  N1  UNL     1       2.035   2.824  17.960  0.00  0.00    +0.000 NA
BRANCH  16  17
ATOM     17  O2  UNL     1       3.264   2.164  18.063  0.00  0.00    +0.000 OA
ATOM     18  H   UNL     1       3.995   2.452  17.553  0.00  0.00    +0.000 HD
ENDBRANCH  16  17
ENDBRANCH   8  15
ENDBRANCH   6   7
BRANCH   1  19
ATOM     19  C6  UNL     1      -1.822   0.174  20.131  0.00  0.00    +0.000 C 
ATOM     20  O1  UNL     1      -1.704   1.397  20.001  0.00  0.00    +0.000 OA
BRANCH  19  21
ATOM     21  C5  UNL     1      -3.120  -0.425  20.646  0.00  0.00    +0.000 C 
BRANCH  21  22
ATOM     22  C3  UNL     1      -4.357   0.067  19.869  0.00  0.00    +0.000 C 
ATOM     23  C4  UNL     1      -5.423   0.541  20.865  0.00  0.00    +0.000 C 
BRANCH  22  25
ATOM     24  C1  UNL     1      -4.995  -0.645  17.486  0.00  0.00    +0.000 C 
ATOM     25  C2  UNL     1      -4.888  -1.052  18.949  0.00  0.00    +0.000 C 
ENDBRANCH  22  25
ENDBRANCH  21  22
ENDBRANCH  19  21
ENDBRANCH   1  19
TORSDOF 7
ENDMDL
MODEL 4
REMARK VINA RESULT:    -6.155      2.948      6.331
REMARK INTER + INTRA:          -9.995
REMARK INTER:                  -8.620
REMARK INTRA:                  -1.375
REMARK UNBOUND:                -1.501
REMARK  Name = laboratorio_evolutivo\Gen4_Mutante_8.pdb
REMARK  12 active torsions:
REMARK  status: ('A' for Active; 'I' for Inactive)
REMARK    1  A    between atoms: C1_1  and  C2_2
REMARK    2  A    between atoms: C2_2  and  C3_3
REMARK    3  A    between atoms: C3_3  and  C4_4
REMARK    4  A    between atoms: C3_3  and  C5_5
REMARK    5  A    between atoms: C5_5  and  C6_6
REMARK    6  A    between atoms: C6_6  and  C7_8
REMARK    7  A    between atoms: C8_9  and  C9_10
REMARK    8  A    between atoms: C12_13  and  C13_14
REMARK    9  A    between atoms: C14_15  and  C15_16
REMARK   10  A    between atoms: N1_17  and  O2_18
REMARK   11  A    between atoms: C17_20  and  C18_21
REMARK   12  A    between atoms: C19_23  and  C20_24
REMARK                            x       y       z     vdW  Elec       q    Type
REMARK                         _______ _______ _______ _____ _____    ______ ____
ROOT
ATOM      1  C7  UNL     1      -0.453   0.745  19.956  0.00  0.00    +0.000 C 
ATOM      2  C8  UNL     1       0.630   0.768  18.860  0.00  0.00    +0.000 C 
ATOM      3  C9  UNL     1       1.018  -0.604  18.306  0.00  0.00    +0.000 C 
ATOM      4  C10 UNL     1      -0.021   1.643  17.781  0.00  0.00    +0.000 C 
ATOM      5  C11 UNL     1      -1.525   1.364  17.851  0.00  0.00    +0.000 C 
ATOM      6  C12 UNL     1      -1.761   0.583  19.158  0.00  0.00    +0.000 C 
ENDROOT
BRANCH   6   7
ATOM      7  C13 UNL     1      -3.085   0.916  19.827  0.00  0.00    +0.000 C 
ATOM      8  C14 UNL     1      -4.059  -0.096  19.996  0.00  0.00    +0.000 C 
ATOM      9  C16 UNL     1      -5.265   0.141  20.654  0.00  0.00    +0.000 C 
ATOM     10  C17 UNL     1      -5.499   1.404  21.148  0.00  0.00    +0.000 C 
ATOM     11  C18 UNL     1      -6.764   1.709  21.889  0.00  0.00    +0.000 C 
ATOM     12  N2  UNL     1      -4.621   2.410  20.968  0.00  0.00    +0.000 NA
ATOM     13  C19 UNL     1      -3.451   2.182  20.310  0.00  0.00    +0.000 C 
ATOM     14  C20 UNL     1      -2.616   3.421  20.180  0.00  0.00    +0.000 C 
BRANCH   8  15
ATOM     15  C15 UNL     1      -3.884  -1.441  19.404  0.00  0.00    +0.000 C 
ATOM     16  N1  UNL     1      -3.572  -2.546  20.015  0.00  0.00    +0.000 NA
BRANCH  16  17
ATOM     17  O2  UNL     1      -3.352  -2.350  21.382  0.00  0.00    +0.000 OA
ATOM     18  H   UNL     1      -2.478  -2.271  21.709  0.00  0.00    +0.000 HD
ENDBRANCH  16  17
ENDBRANCH   8  15
ENDBRANCH   6   7
BRANCH   1  19
ATOM     19  C6  UNL     1      -0.140  -0.228  21.089  0.00  0.00    +0.000 C 
ATOM     20  O1  UNL     1      -0.812  -1.260  21.187  0.00  0.00    +0.000 OA
BRANCH  19  21
ATOM     21  C5  UNL     1       0.901   0.118  22.141  0.00  0.00    +0.000 C 
BRANCH  21  22
ATOM     22  C3  UNL     1       2.305  -0.414  21.793  0.00  0.00    +0.000 C 
ATOM     23  C4  UNL     1       2.567  -1.702  22.581  0.00  0.00    +0.000 C 
BRANCH  22  25
ATOM     24  C1  UNL     1       2.999   1.601  23.227  0.00  0.00    +0.000 C 
ATOM     25  C2  UNL     1       3.370   0.665  22.085  0.00  0.00    +0.000 C 
ENDBRANCH  22  25
ENDBRANCH  21  22
ENDBRANCH  19  21
ENDBRANCH   1  19
TORSDOF 7
ENDMDL
MODEL 5
REMARK VINA RESULT:    -6.143      2.435      5.640
REMARK INTER + INTRA:          -9.979
REMARK INTER:                  -8.476
REMARK INTRA:                  -1.503
REMARK UNBOUND:                -1.501
REMARK  Name = laboratorio_evolutivo\Gen4_Mutante_8.pdb
REMARK  12 active torsions:
REMARK  status: ('A' for Active; 'I' for Inactive)
REMARK    1  A    between atoms: C1_1  and  C2_2
REMARK    2  A    between atoms: C2_2  and  C3_3
REMARK    3  A    between atoms: C3_3  and  C4_4
REMARK    4  A    between atoms: C3_3  and  C5_5
REMARK    5  A    between atoms: C5_5  and  C6_6
REMARK    6  A    between atoms: C6_6  and  C7_8
REMARK    7  A    between atoms: C8_9  and  C9_10
REMARK    8  A    between atoms: C12_13  and  C13_14
REMARK    9  A    between atoms: C14_15  and  C15_16
REMARK   10  A    between atoms: N1_17  and  O2_18
REMARK   11  A    between atoms: C17_20  and  C18_21
REMARK   12  A    between atoms: C19_23  and  C20_24
REMARK                            x       y       z     vdW  Elec       q    Type
REMARK                         _______ _______ _______ _____ _____    ______ ____
ROOT
ATOM      1  C7  UNL     1       0.972  -0.253  19.658  0.00  0.00    +0.000 C 
ATOM      2  C8  UNL     1       1.865  -1.063  18.697  0.00  0.00    +0.000 C 
ATOM      3  C9  UNL     1       1.874  -2.573  18.942  0.00  0.00    +0.000 C 
ATOM      4  C10 UNL     1       1.261  -0.721  17.330  0.00  0.00    +0.000 C 
ATOM      5  C11 UNL     1      -0.241  -0.535  17.558  0.00  0.00    +0.000 C 
ATOM      6  C12 UNL     1      -0.443  -0.458  19.084  0.00  0.00    +0.000 C 
ENDROOT
BRANCH   6   7
ATOM      7  C13 UNL     1      -1.556   0.491  19.498  0.00  0.00    +0.000 C 
ATOM      8  C14 UNL     1      -2.820  -0.029  19.864  0.00  0.00    +0.000 C 
ATOM      9  C16 UNL     1      -3.857   0.790  20.306  0.00  0.00    +0.000 C 
ATOM     10  C17 UNL     1      -3.627   2.145  20.382  0.00  0.00    +0.000 C 
ATOM     11  C18 UNL     1      -4.694   3.072  20.878  0.00  0.00    +0.000 C 
ATOM     12  N2  UNL     1      -2.455   2.689  19.999  0.00  0.00    +0.000 NA
ATOM     13  C19 UNL     1      -1.449   1.889  19.550  0.00  0.00    +0.000 C 
ATOM     14  C20 UNL     1      -0.235   2.670  19.141  0.00  0.00    +0.000 C 
BRANCH   8  15
ATOM     15  C15 UNL     1      -3.135  -1.468  19.712  0.00  0.00    +0.000 C 
ATOM     16  N1  UNL     1      -2.996  -2.411  20.596  0.00  0.00    +0.000 NA
BRANCH  16  17
ATOM     17  O2  UNL     1      -2.438  -1.939  21.789  0.00  0.00    +0.000 OA
ATOM     18  H   UNL     1      -2.558  -2.419  22.584  0.00  0.00    +0.000 HD
ENDBRANCH  16  17
ENDBRANCH   8  15
ENDBRANCH   6   7
BRANCH   1  19
ATOM     19  C6  UNL     1       1.238  -0.563  21.128  0.00  0.00    +0.000 C 
ATOM     20  O1  UNL     1       0.344  -1.100  21.792  0.00  0.00    +0.000 OA
BRANCH  19  21
ATOM     21  C5  UNL     1       2.531  -0.118  21.792  0.00  0.00    +0.000 C 
BRANCH  21  22
ATOM     22  C3  UNL     1       2.683   1.415  21.839  0.00  0.00    +0.000 C 
ATOM     23  C4  UNL     1       3.696   1.855  20.775  0.00  0.00    +0.000 C 
BRANCH  22  25
ATOM     24  C1  UNL     1       3.638   3.290  23.312  0.00  0.00    +0.000 C 
ATOM     25  C2  UNL     1       3.104   1.866  23.254  0.00  0.00    +0.000 C 
ENDBRANCH  22  25
ENDBRANCH  21  22
ENDBRANCH  19  21
ENDBRANCH   1  19
TORSDOF 7
ENDMDL
MODEL 6
REMARK VINA RESULT:    -6.114     22.621     24.902
REMARK INTER + INTRA:          -9.938
REMARK INTER:                  -8.537
REMARK INTRA:                  -1.400
REMARK UNBOUND:                -1.501
REMARK  Name = laboratorio_evolutivo\Gen4_Mutante_8.pdb
REMARK  12 active torsions:
REMARK  status: ('A' for Active; 'I' for Inactive)
REMARK    1  A    between atoms: C1_1  and  C2_2
REMARK    2  A    between atoms: C2_2  and  C3_3
REMARK    3  A    between atoms: C3_3  and  C4_4
REMARK    4  A    between atoms: C3_3  and  C5_5
REMARK    5  A    between atoms: C5_5  and  C6_6
REMARK    6  A    between atoms: C6_6  and  C7_8
REMARK    7  A    between atoms: C8_9  and  C9_10
REMARK    8  A    between atoms: C12_13  and  C13_14
REMARK    9  A    between atoms: C14_15  and  C15_16
REMARK   10  A    between atoms: N1_17  and  O2_18
REMARK   11  A    between atoms: C17_20  and  C18_21
REMARK   12  A    between atoms: C19_23  and  C20_24
REMARK                            x       y       z     vdW  Elec       q    Type
REMARK                         _______ _______ _______ _____ _____    ______ ____
ROOT
ATOM      1  C7  UNL     1      15.373  -6.508   1.947  0.00  0.00    +0.000 C 
ATOM      2  C8  UNL     1      14.353  -6.417   0.796  0.00  0.00    +0.000 C 
ATOM      3  C9  UNL     1      14.477  -5.168  -0.080  0.00  0.00    +0.000 C 
ATOM      4  C10 UNL     1      14.652  -7.691  -0.003  0.00  0.00    +0.000 C 
ATOM      5  C11 UNL     1      16.157  -7.939   0.130  0.00  0.00    +0.000 C 
ATOM      6  C12 UNL     1      16.654  -7.001   1.247  0.00  0.00    +0.000 C 
ENDROOT
BRANCH   6   7
ATOM      7  C13 UNL     1      17.774  -7.600   2.083  0.00  0.00    +0.000 C 
ATOM      8  C14 UNL     1      19.102  -7.147   1.904  0.00  0.00    +0.000 C 
ATOM      9  C16 UNL     1      20.157  -7.621   2.683  0.00  0.00    +0.000 C 
ATOM     10  C17 UNL     1      19.879  -8.558   3.652  0.00  0.00    +0.000 C 
ATOM     11  C18 UNL     1      20.966  -9.081   4.539  0.00  0.00    +0.000 C 
ATOM     12  N2  UNL     1      18.637  -9.052   3.826  0.00  0.00    +0.000 NA
ATOM     13  C19 UNL     1      17.611  -8.602   3.052  0.00  0.00    +0.000 C 
ATOM     14  C20 UNL     1      16.314  -9.285   3.368  0.00  0.00    +0.000 C 
BRANCH   8  15
ATOM     15  C15 UNL     1      19.456  -6.208   0.816  0.00  0.00    +0.000 C 
ATOM     16  N1  UNL     1      19.532  -4.911   0.876  0.00  0.00    +0.000 NA
BRANCH  16  17
ATOM     17  O2  UNL     1      19.183  -4.420   2.139  0.00  0.00    +0.000 OA
ATOM     18  H   UNL     1      18.445  -3.851   2.232  0.00  0.00    +0.000 HD
ENDBRANCH  16  17
ENDBRANCH   8  15
ENDBRANCH   6   7
BRANCH   1  19
ATOM     19  C6  UNL     1      15.424  -5.247   2.805  0.00  0.00    +0.000 C 
ATOM     20  O1  UNL     1      16.353  -4.451   2.634  0.00  0.00    +0.000 OA
BRANCH  19  21
ATOM     21  C5  UNL     1      14.419  -5.032   3.925  0.00  0.00    +0.000 C 
BRANCH  21  22
ATOM     22  C3  UNL     1      12.977  -4.857   3.409  0.00  0.00    +0.000 C 
ATOM     23  C4  UNL     1      12.754  -3.391   3.022  0.00  0.00    +0.000 C 
BRANCH  22  25
ATOM     24  C1  UNL     1      10.662  -5.855   3.902  0.00  0.00    +0.000 C 
ATOM     25  C2  UNL     1      11.968  -5.328   4.479  0.00  0.00    +0.000 C 
ENDBRANCH  22  25
ENDBRANCH  21  22
ENDBRANCH  19  21
ENDBRANCH   1  19
TORSDOF 7
ENDMDL
MODEL 7
REMARK VINA RESULT:    -6.105     24.231     26.583
REMARK INTER + INTRA:          -9.925
REMARK INTER:                  -8.200
REMARK INTRA:                  -1.725
REMARK UNBOUND:                -1.501
REMARK  Name = laboratorio_evolutivo\Gen4_Mutante_8.pdb
REMARK  12 active torsions:
REMARK  status: ('A' for Active; 'I' for Inactive)
REMARK    1  A    between atoms: C1_1  and  C2_2
REMARK    2  A    between atoms: C2_2  and  C3_3
REMARK    3  A    between atoms: C3_3  and  C4_4
REMARK    4  A    between atoms: C3_3  and  C5_5
REMARK    5  A    between atoms: C5_5  and  C6_6
REMARK    6  A    between atoms: C6_6  and  C7_8
REMARK    7  A    between atoms: C8_9  and  C9_10
REMARK    8  A    between atoms: C12_13  and  C13_14
REMARK    9  A    between atoms: C14_15  and  C15_16
REMARK   10  A    between atoms: N1_17  and  O2_18
REMARK   11  A    between atoms: C17_20  and  C18_21
REMARK   12  A    between atoms: C19_23  and  C20_24
REMARK                            x       y       z     vdW  Elec       q    Type
REMARK                         _______ _______ _______ _____ _____    ______ ____
ROOT
ATOM      1  C7  UNL     1      16.356  -9.374   1.305  0.00  0.00    +0.000 C 
ATOM      2  C8  UNL     1      16.700 -10.750   1.907  0.00  0.00    +0.000 C 
ATOM      3  C9  UNL     1      18.002 -11.371   1.398  0.00  0.00    +0.000 C 
ATOM      4  C10 UNL     1      16.780 -10.436   3.406  0.00  0.00    +0.000 C 
ATOM      5  C11 UNL     1      17.321  -9.008   3.518  0.00  0.00    +0.000 C 
ATOM      6  C12 UNL     1      17.251  -8.405   2.101  0.00  0.00    +0.000 C 
ENDROOT
BRANCH   6   7
ATOM      7  C13 UNL     1      16.926  -6.919   2.095  0.00  0.00    +0.000 C 
ATOM      8  C14 UNL     1      17.976  -5.973   2.035  0.00  0.00    +0.000 C 
ATOM      9  C16 UNL     1      17.733  -4.602   1.969  0.00  0.00    +0.000 C 
ATOM     10  C17 UNL     1      16.425  -4.173   1.962  0.00  0.00    +0.000 C 
ATOM     11  C18 UNL     1      16.103  -2.715   1.862  0.00  0.00    +0.000 C 
ATOM     12  N2  UNL     1      15.395  -5.036   2.065  0.00  0.00    +0.000 NA
ATOM     13  C19 UNL     1      15.634  -6.374   2.148  0.00  0.00    +0.000 C 
ATOM     14  C20 UNL     1      14.373  -7.174   2.286  0.00  0.00    +0.000 C 
BRANCH   8  15
ATOM     15  C15 UNL     1      19.394  -6.388   2.130  0.00  0.00    +0.000 C 
ATOM     16  N1  UNL     1      20.253  -6.516   1.162  0.00  0.00    +0.000 NA
BRANCH  16  17
ATOM     17  O2  UNL     1      19.682  -6.255  -0.088  0.00  0.00    +0.000 OA
ATOM     18  H   UNL     1      18.796  -6.505  -0.260  0.00  0.00    +0.000 HD
ENDBRANCH  16  17
ENDBRANCH   8  15
ENDBRANCH   6   7
BRANCH   1  19
ATOM     19  C6  UNL     1      16.404  -9.358  -0.220  0.00  0.00    +0.000 C 
ATOM     20  O1  UNL     1      15.611 -10.069  -0.846  0.00  0.00    +0.000 OA
BRANCH  19  21
ATOM     21  C5  UNL     1      17.479  -8.572  -0.953  0.00  0.00    +0.000 C 
BRANCH  21  22
ATOM     22  C3  UNL     1      16.905  -7.637  -2.035  0.00  0.00    +0.000 C 
ATOM     23  C4  UNL     1      18.019  -7.259  -3.018  0.00  0.00    +0.000 C 
BRANCH  22  25
ATOM     24  C1  UNL     1      16.844  -5.074  -1.883  0.00  0.00    +0.000 C 
ATOM     25  C2  UNL     1      16.271  -6.391  -1.380  0.00  0.00    +0.000 C 
ENDBRANCH  22  25
ENDBRANCH  21  22
ENDBRANCH  19  21
ENDBRANCH   1  19
TORSDOF 7
ENDMDL
MODEL 8
REMARK VINA RESULT:    -6.068     24.280     26.711
REMARK INTER + INTRA:          -9.875
REMARK INTER:                  -8.355
REMARK INTRA:                  -1.520
REMARK UNBOUND:                -1.501
REMARK  Name = laboratorio_evolutivo\Gen4_Mutante_8.pdb
REMARK  12 active torsions:
REMARK  status: ('A' for Active; 'I' for Inactive)
REMARK    1  A    between atoms: C1_1  and  C2_2
REMARK    2  A    between atoms: C2_2  and  C3_3
REMARK    3  A    between atoms: C3_3  and  C4_4
REMARK    4  A    between atoms: C3_3  and  C5_5
REMARK    5  A    between atoms: C5_5  and  C6_6
REMARK    6  A    between atoms: C6_6  and  C7_8
REMARK    7  A    between atoms: C8_9  and  C9_10
REMARK    8  A    between atoms: C12_13  and  C13_14
REMARK    9  A    between atoms: C14_15  and  C15_16
REMARK   10  A    between atoms: N1_17  and  O2_18
REMARK   11  A    between atoms: C17_20  and  C18_21
REMARK   12  A    between atoms: C19_23  and  C20_24
REMARK                            x       y       z     vdW  Elec       q    Type
REMARK                         _______ _______ _______ _____ _____    ______ ____
ROOT
ATOM      1  C7  UNL     1      16.188  -6.660  -0.648  0.00  0.00    +0.000 C 
ATOM      2  C8  UNL     1      16.358  -5.616  -1.768  0.00  0.00    +0.000 C 
ATOM      3  C9  UNL     1      16.564  -4.179  -1.285  0.00  0.00    +0.000 C 
ATOM      4  C10 UNL     1      17.592  -6.138  -2.513  0.00  0.00    +0.000 C 
ATOM      5  C11 UNL     1      18.489  -6.789  -1.455  0.00  0.00    +0.000 C 
ATOM      6  C12 UNL     1      17.634  -6.916  -0.180  0.00  0.00    +0.000 C 
ENDROOT
BRANCH   6   7
ATOM      7  C13 UNL     1      17.942  -8.166   0.629  0.00  0.00    +0.000 C 
ATOM      8  C14 UNL     1      18.645  -8.053   1.853  0.00  0.00    +0.000 C 
ATOM      9  C16 UNL     1      18.903  -9.159   2.661  0.00  0.00    +0.000 C 
ATOM     10  C17 UNL     1      18.454 -10.390   2.242  0.00  0.00    +0.000 C 
ATOM     11  C18 UNL     1      18.676 -11.608   3.084  0.00  0.00    +0.000 C 
ATOM     12  N2  UNL     1      17.822 -10.551   1.062  0.00  0.00    +0.000 NA
ATOM     13  C19 UNL     1      17.586  -9.473   0.264  0.00  0.00    +0.000 C 
ATOM     14  C20 UNL     1      16.902  -9.848  -1.017  0.00  0.00    +0.000 C 
BRANCH   8  15
ATOM     15  C15 UNL     1      19.220  -6.763   2.295  0.00  0.00    +0.000 C 
ATOM     16  N1  UNL     1      20.341  -6.221   1.921  0.00  0.00    +0.000 NA
BRANCH  16  17
ATOM     17  O2  UNL     1      21.048  -7.033   1.028  0.00  0.00    +0.000 OA
ATOM     18  H   UNL     1      21.550  -6.645   0.339  0.00  0.00    +0.000 HD
ENDBRANCH  16  17
ENDBRANCH   8  15
ENDBRANCH   6   7
BRANCH   1  19
ATOM     19  C6  UNL     1      15.125  -6.274   0.377  0.00  0.00    +0.000 C 
ATOM     20  O1  UNL     1      13.978  -6.039  -0.019  0.00  0.00    +0.000 OA
BRANCH  19  21
ATOM     21  C5  UNL     1      15.494  -6.072   1.837  0.00  0.00    +0.000 C 
BRANCH  21  22
ATOM     22  C3  UNL     1      15.334  -4.610   2.298  0.00  0.00    +0.000 C 
ATOM     23  C4  UNL     1      16.719  -3.968   2.435  0.00  0.00    +0.000 C 
BRANCH  22  25
ATOM     24  C1  UNL     1      14.439  -5.895   4.334  0.00  0.00    +0.000 C 
ATOM     25  C2  UNL     1      14.541  -4.553   3.622  0.00  0.00    +0.000 C 
ENDBRANCH  22  25
ENDBRANCH  21  22
ENDBRANCH  19  21
ENDBRANCH   1  19
TORSDOF 7
ENDMDL
MODEL 9
REMARK VINA RESULT:    -5.897     25.233     27.960
REMARK INTER + INTRA:          -9.639
REMARK INTER:                  -8.046
REMARK INTRA:                  -1.593
REMARK UNBOUND:                -1.501
REMARK  Name = laboratorio_evolutivo\Gen4_Mutante_8.pdb
REMARK  12 active torsions:
REMARK  status: ('A' for Active; 'I' for Inactive)
REMARK    1  A    between atoms: C1_1  and  C2_2
REMARK    2  A    between atoms: C2_2  and  C3_3
REMARK    3  A    between atoms: C3_3  and  C4_4
REMARK    4  A    between atoms: C3_3  and  C5_5
REMARK    5  A    between atoms: C5_5  and  C6_6
REMARK    6  A    between atoms: C6_6  and  C7_8
REMARK    7  A    between atoms: C8_9  and  C9_10
REMARK    8  A    between atoms: C12_13  and  C13_14
REMARK    9  A    between atoms: C14_15  and  C15_16
REMARK   10  A    between atoms: N1_17  and  O2_18
REMARK   11  A    between atoms: C17_20  and  C18_21
REMARK   12  A    between atoms: C19_23  and  C20_24
REMARK                            x       y       z     vdW  Elec       q    Type
REMARK                         _______ _______ _______ _____ _____    ______ ____
ROOT
ATOM      1  C7  UNL     1      17.543  -8.280   1.631  0.00  0.00    +0.000 C 
ATOM      2  C8  UNL     1      16.555  -7.317   2.316  0.00  0.00    +0.000 C 
ATOM      3  C9  UNL     1      15.537  -6.661   1.380  0.00  0.00    +0.000 C 
ATOM      4  C10 UNL     1      15.868  -8.231   3.338  0.00  0.00    +0.000 C 
ATOM      5  C11 UNL     1      15.800  -9.619   2.694  0.00  0.00    +0.000 C 
ATOM      6  C12 UNL     1      16.718  -9.570   1.457  0.00  0.00    +0.000 C 
ENDROOT
BRANCH   6   7
ATOM      7  C13 UNL     1      17.439 -10.882   1.189  0.00  0.00    +0.000 C 
ATOM      8  C14 UNL     1      17.109 -11.640   0.041  0.00  0.00    +0.000 C 
ATOM      9  C16 UNL     1      17.777 -12.819  -0.283  0.00  0.00    +0.000 C 
ATOM     10  C17 UNL     1      18.786 -13.245   0.550  0.00  0.00    +0.000 C 
ATOM     11  C18 UNL     1      19.559 -14.488   0.237  0.00  0.00    +0.000 C 
ATOM     12  N2  UNL     1      19.102 -12.580   1.679  0.00  0.00    +0.000 NA
ATOM     13  C19 UNL     1      18.436 -11.437   2.004  0.00  0.00    +0.000 C 
ATOM     14  C20 UNL     1      18.901 -10.854   3.305  0.00  0.00    +0.000 C 
BRANCH   8  15
ATOM     15  C15 UNL     1      15.973 -11.264  -0.831  0.00  0.00    +0.000 C 
ATOM     16  N1  UNL     1      16.015 -10.624  -1.962  0.00  0.00    +0.000 NA
BRANCH  16  17
ATOM     17  O2  UNL     1      17.316 -10.243  -2.305  0.00  0.00    +0.000 OA
ATOM     18  H   UNL     1      17.524  -9.337  -2.423  0.00  0.00    +0.000 HD
ENDBRANCH  16  17
ENDBRANCH   8  15
ENDBRANCH   6   7
BRANCH   1  19
ATOM     19  C6  UNL     1      18.238  -7.665   0.419  0.00  0.00    +0.000 C 
ATOM     20  O1  UNL     1      17.856  -7.989  -0.711  0.00  0.00    +0.000 OA
BRANCH  19  21
ATOM     21  C5  UNL     1      19.448  -6.763   0.596  0.00  0.00    +0.000 C 
BRANCH  21  22
ATOM     22  C3  UNL     1      19.734  -6.428   2.074  0.00  0.00    +0.000 C 
ATOM     23  C4  UNL     1      20.116  -4.948   2.191  0.00  0.00    +0.000 C 
BRANCH  22  25
ATOM     24  C1  UNL     1      20.666  -7.715   4.092  0.00  0.00    +0.000 C 
ATOM     25  C2  UNL     1      20.842  -7.353   2.624  0.00  0.00    +0.000 C 
ENDBRANCH  22  25
ENDBRANCH  21  22
ENDBRANCH  19  21
ENDBRANCH   1  19
TORSDOF 7
ENDMDL
