MODEL 1
REMARK VINA RESULT:    -6.163      0.000      0.000
REMARK INTER + INTRA:         -10.498
REMARK INTER:                  -8.865
REMARK INTRA:                  -1.633
REMARK UNBOUND:                -1.633
REMARK  Name = laboratorio_evolutivo\Gen4_Mutante_7.pdb
REMARK  12 active torsions:
REMARK  status: ('A' for Active; 'I' for Inactive)
REMARK    1  A    between atoms: C1_1  and  C2_2
REMARK    2  A    between atoms: C2_2  and  C3_3
REMARK    3  A    between atoms: C5_5  and  C6_6
REMARK    4  A    between atoms: N1_7  and  O1_8
REMARK    5  A    between atoms: C7_9  and  C8_10
REMARK    6  A    between atoms: C11_13  and  C12_14
REMARK    7  A    between atoms: C13_15  and  C14_16
REMARK    8  A    between atoms: C14_16  and  C15_18
REMARK    9  A    between atoms: C15_18  and  C16_19
REMARK   10  A    between atoms: C16_19  and  C17_20
REMARK   11  A    between atoms: C16_19  and  C18_21
REMARK   12  A    between atoms: C18_21  and  C19_22
REMARK                            x       y       z     vdW  Elec       q    Type
REMARK                         _______ _______ _______ _____ _____    ______ ____
ROOT
ATOM      1  C8  UNL     1       0.860  -1.392  19.305  0.00  0.00    +0.000 C 
ATOM      2  C9  UNL     1       1.821  -2.245  18.442  0.00  0.00    +0.000 C 
ATOM      3  C10 UNL     1       1.540  -3.699  18.808  0.00  0.00    +0.000 C 
ATOM      4  C11 UNL     1       0.069  -3.716  19.225  0.00  0.00    +0.000 C 
ATOM      5  C12 UNL     1      -0.857  -3.790  18.009  0.00  0.00    +0.000 C 
ATOM      6  C13 UNL     1      -0.044  -2.417  20.041  0.00  0.00    +0.000 C 
ENDROOT
BRANCH   1  10
ATOM      7  C3  UNL     1       2.756   1.108  22.246  0.00  0.00    +0.000 C 
ATOM      8  C4  UNL     1       2.654   1.599  20.953  0.00  0.00    +0.000 C 
ATOM      9  C5  UNL     1       2.047   0.815  19.962  0.00  0.00    +0.000 C 
ATOM     10  C7  UNL     1       1.558  -0.464  20.281  0.00  0.00    +0.000 C 
ATOM     11  C20 UNL     1       1.711  -0.852  21.615  0.00  0.00    +0.000 C 
ATOM     12  N2  UNL     1       2.282  -0.107  22.587  0.00  0.00    +0.000 NA
BRANCH   7  14
ATOM     13  C1  UNL     1       3.798   3.307  22.828  0.00  0.00    +0.000 C 
ATOM     14  C2  UNL     1       3.369   1.941  23.340  0.00  0.00    +0.000 C 
ENDBRANCH   7  14
BRANCH   9  15
ATOM     15  C6  UNL     1       1.945   1.405  18.605  0.00  0.00    +0.000 C 
ATOM     16  N1  UNL     1       2.269   2.640  18.371  0.00  0.00    +0.000 NA
BRANCH  16  17
ATOM     17  O1  UNL     1       2.071   2.914  17.014  0.00  0.00    +0.000 OA
ATOM     18  H   UNL     1       2.388   3.716  16.646  0.00  0.00    +0.000 HD
ENDBRANCH  16  17
ENDBRANCH   9  15
ENDBRANCH   1  10
BRANCH   6  19
ATOM     19  C14 UNL     1      -1.480  -1.944  20.225  0.00  0.00    +0.000 C 
ATOM     20  O2  UNL     1      -2.226  -2.447  21.064  0.00  0.00    +0.000 OA
BRANCH  19  21
ATOM     21  C15 UNL     1      -1.953  -0.797  19.347  0.00  0.00    +0.000 C 
BRANCH  21  22
ATOM     22  C16 UNL     1      -2.487   0.421  20.122  0.00  0.00    +0.000 C 
ATOM     23  C17 UNL     1      -1.558   1.630  19.986  0.00  0.00    +0.000 C 
BRANCH  22  24
ATOM     24  C18 UNL     1      -3.937   0.759  19.729  0.00  0.00    +0.000 C 
ATOM     25  C19 UNL     1      -4.878  -0.436  19.802  0.00  0.00    +0.000 C 
ENDBRANCH  22  24
ENDBRANCH  21  22
ENDBRANCH  19  21
ENDBRANCH   6  19
TORSDOF 8
ENDMDL
MODEL 2
REMARK VINA RESULT:    -6.138      1.901      4.575
REMARK INTER + INTRA:         -10.461
REMARK INTER:                  -8.597
REMARK INTRA:                  -1.864
REMARK UNBOUND:                -1.633
REMARK  Name = laboratorio_evolutivo\Gen4_Mutante_7.pdb
REMARK  12 active torsions:
REMARK  status: ('A' for Active; 'I' for Inactive)
REMARK    1  A    between atoms: C1_1  and  C2_2
REMARK    2  A    between atoms: C2_2  and  C3_3
REMARK    3  A    between atoms: C5_5  and  C6_6
REMARK    4  A    between atoms: N1_7  and  O1_8
REMARK    5  A    between atoms: C7_9  and  C8_10
REMARK    6  A    between atoms: C11_13  and  C12_14
REMARK    7  A    between atoms: C13_15  and  C14_16
REMARK    8  A    between atoms: C14_16  and  C15_18
REMARK    9  A    between atoms: C15_18  and  C16_19
REMARK   10  A    between atoms: C16_19  and  C17_20
REMARK   11  A    between atoms: C16_19  and  C18_21
REMARK   12  A    between atoms: C18_21  and  C19_22
REMARK                            x       y       z     vdW  Elec       q    Type
REMARK                         _______ _______ _______ _____ _____    ______ ____
ROOT
ATOM      1  C8  UNL     1       0.216  -0.082  20.029  0.00  0.00    +0.000 C 
ATOM      2  C9  UNL     1      -1.236   0.046  20.547  0.00  0.00    +0.000 C 
ATOM      3  C10 UNL     1      -2.061   0.565  19.373  0.00  0.00    +0.000 C 
ATOM      4  C11 UNL     1      -1.339   0.038  18.131  0.00  0.00    +0.000 C 
ATOM      5  C12 UNL     1      -1.727  -1.411  17.831  0.00  0.00    +0.000 C 
ATOM      6  C13 UNL     1       0.137   0.242  18.514  0.00  0.00    +0.000 C 
ENDROOT
BRANCH   1  10
ATOM      7  C3  UNL     1       3.035   2.603  21.855  0.00  0.00    +0.000 C 
ATOM      8  C4  UNL     1       2.885   1.345  22.421  0.00  0.00    +0.000 C 
ATOM      9  C5  UNL     1       1.973   0.441  21.860  0.00  0.00    +0.000 C 
ATOM     10  C7  UNL     1       1.211   0.816  20.739  0.00  0.00    +0.000 C 
ATOM     11  C20 UNL     1       1.450   2.104  20.253  0.00  0.00    +0.000 C 
ATOM     12  N2  UNL     1       2.332   2.986  20.771  0.00  0.00    +0.000 NA
BRANCH   7  14
ATOM     13  C1  UNL     1       3.736   3.916  23.867  0.00  0.00    +0.000 C 
ATOM     14  C2  UNL     1       4.032   3.583  22.412  0.00  0.00    +0.000 C 
ENDBRANCH   7  14
BRANCH   9  15
ATOM     15  C6  UNL     1       1.876  -0.898  22.493  0.00  0.00    +0.000 C 
ATOM     16  N1  UNL     1       2.560  -1.911  22.056  0.00  0.00    +0.000 NA
BRANCH  16  17
ATOM     17  O1  UNL     1       2.267  -3.030  22.842  0.00  0.00    +0.000 OA
ATOM     18  H   UNL     1       2.955  -3.605  23.114  0.00  0.00    +0.000 HD
ENDBRANCH  16  17
ENDBRANCH   9  15
ENDBRANCH   1  10
BRANCH   6  19
ATOM     19  C14 UNL     1       1.098  -0.578  17.663  0.00  0.00    +0.000 C 
ATOM     20  O2  UNL     1       1.270  -0.342  16.467  0.00  0.00    +0.000 OA
BRANCH  19  21
ATOM     21  C15 UNL     1       1.867  -1.690  18.357  0.00  0.00    +0.000 C 
BRANCH  21  22
ATOM     22  C16 UNL     1       1.740  -3.069  17.687  0.00  0.00    +0.000 C 
ATOM     23  C17 UNL     1       2.999  -3.434  16.897  0.00  0.00    +0.000 C 
BRANCH  22  24
ATOM     24  C18 UNL     1       1.354  -4.165  18.699  0.00  0.00    +0.000 C 
ATOM     25  C19 UNL     1       0.364  -3.692  19.754  0.00  0.00    +0.000 C 
ENDBRANCH  22  24
ENDBRANCH  21  22
ENDBRANCH  19  21
ENDBRANCH   6  19
TORSDOF 8
ENDMDL
MODEL 3
REMARK VINA RESULT:    -6.133     23.512     25.649
REMARK INTER + INTRA:         -10.454
REMARK INTER:                  -8.548
REMARK INTRA:                  -1.906
REMARK UNBOUND:                -1.633
REMARK  Name = laboratorio_evolutivo\Gen4_Mutante_7.pdb
REMARK  12 active torsions:
REMARK  status: ('A' for Active; 'I' for Inactive)
REMARK    1  A    between atoms: C1_1  and  C2_2
REMARK    2  A    between atoms: C2_2  and  C3_3
REMARK    3  A    between atoms: C5_5  and  C6_6
REMARK    4  A    between atoms: N1_7  and  O1_8
REMARK    5  A    between atoms: C7_9  and  C8_10
REMARK    6  A    between atoms: C11_13  and  C12_14
REMARK    7  A    between atoms: C13_15  and  C14_16
REMARK    8  A    between atoms: C14_16  and  C15_18
REMARK    9  A    between atoms: C15_18  and  C16_19
REMARK   10  A    between atoms: C16_19  and  C17_20
REMARK   11  A    between atoms: C16_19  and  C18_21
REMARK   12  A    between atoms: C18_21  and  C19_22
REMARK                            x       y       z     vdW  Elec       q    Type
REMARK                         _______ _______ _______ _____ _____    ______ ____
ROOT
ATOM      1  C8  UNL     1      16.444  -6.744   1.418  0.00  0.00    +0.000 C 
ATOM      2  C9  UNL     1      15.836  -7.849   0.522  0.00  0.00    +0.000 C 
ATOM      3  C10 UNL     1      14.602  -8.361   1.260  0.00  0.00    +0.000 C 
ATOM      4  C11 UNL     1      14.114  -7.162   2.075  0.00  0.00    +0.000 C 
ATOM      5  C12 UNL     1      13.273  -6.210   1.222  0.00  0.00    +0.000 C 
ATOM      6  C13 UNL     1      15.438  -6.568   2.586  0.00  0.00    +0.000 C 
ENDROOT
BRANCH   1  10
ATOM      7  C3  UNL     1      20.303  -7.761   3.017  0.00  0.00    +0.000 C 
ATOM      8  C4  UNL     1      20.222  -6.650   2.191  0.00  0.00    +0.000 C 
ATOM      9  C5  UNL     1      18.984  -6.287   1.644  0.00  0.00    +0.000 C 
ATOM     10  C7  UNL     1      17.839  -7.052   1.927  0.00  0.00    +0.000 C 
ATOM     11  C20 UNL     1      18.040  -8.145   2.775  0.00  0.00    +0.000 C 
ATOM     12  N2  UNL     1      19.222  -8.506   3.321  0.00  0.00    +0.000 NA
BRANCH   7  14
ATOM     13  C1  UNL     1      21.533  -9.539   4.277  0.00  0.00    +0.000 C 
ATOM     14  C2  UNL     1      21.611  -8.156   3.649  0.00  0.00    +0.000 C 
ENDBRANCH   7  14
BRANCH   9  15
ATOM     15  C6  UNL     1      18.956  -5.074   0.788  0.00  0.00    +0.000 C 
ATOM     16  N1  UNL     1      19.020  -5.150  -0.506  0.00  0.00    +0.000 NA
BRANCH  16  17
ATOM     17  O1  UNL     1      18.973  -3.858  -1.040  0.00  0.00    +0.000 OA
ATOM     18  H   UNL     1      18.172  -3.527  -1.396  0.00  0.00    +0.000 HD
ENDBRANCH  16  17
ENDBRANCH   9  15
ENDBRANCH   1  10
BRANCH   6  19
ATOM     19  C14 UNL     1      15.306  -5.129   3.068  0.00  0.00    +0.000 C 
ATOM     20  O2  UNL     1      14.672  -4.839   4.082  0.00  0.00    +0.000 OA
BRANCH  19  21
ATOM     21  C15 UNL     1      16.016  -4.057   2.259  0.00  0.00    +0.000 C 
BRANCH  21  22
ATOM     22  C16 UNL     1      15.116  -3.313   1.256  0.00  0.00    +0.000 C 
ATOM     23  C17 UNL     1      14.639  -1.969   1.811  0.00  0.00    +0.000 C 
BRANCH  22  24
ATOM     24  C18 UNL     1      15.794  -3.163  -0.120  0.00  0.00    +0.000 C 
ATOM     25  C19 UNL     1      15.429  -4.271  -1.098  0.00  0.00    +0.000 C 
ENDBRANCH  22  24
ENDBRANCH  21  22
ENDBRANCH  19  21
ENDBRANCH   6  19
TORSDOF 8
ENDMDL
MODEL 4
REMARK VINA RESULT:    -6.019     25.278     28.092
REMARK INTER + INTRA:         -10.291
REMARK INTER:                  -9.081
REMARK INTRA:                  -1.210
REMARK UNBOUND:                -1.633
REMARK  Name = laboratorio_evolutivo\Gen4_Mutante_7.pdb
REMARK  12 active torsions:
REMARK  status: ('A' for Active; 'I' for Inactive)
REMARK    1  A    between atoms: C1_1  and  C2_2
REMARK    2  A    between atoms: C2_2  and  C3_3
REMARK    3  A    between atoms: C5_5  and  C6_6
REMARK    4  A    between atoms: N1_7  and  O1_8
REMARK    5  A    between atoms: C7_9  and  C8_10
REMARK    6  A    between atoms: C11_13  and  C12_14
REMARK    7  A    between atoms: C13_15  and  C14_16
REMARK    8  A    between atoms: C14_16  and  C15_18
REMARK    9  A    between atoms: C15_18  and  C16_19
REMARK   10  A    between atoms: C16_19  and  C17_20
REMARK   11  A    between atoms: C16_19  and  C18_21
REMARK   12  A    between atoms: C18_21  and  C19_22
REMARK                            x       y       z     vdW  Elec       q    Type
REMARK                         _______ _______ _______ _____ _____    ______ ____
ROOT
ATOM      1  C8  UNL     1      16.199  -7.397   0.232  0.00  0.00    +0.000 C 
ATOM      2  C9  UNL     1      14.683  -7.654   0.401  0.00  0.00    +0.000 C 
ATOM      3  C10 UNL     1      14.556  -8.791   1.411  0.00  0.00    +0.000 C 
ATOM      4  C11 UNL     1      15.792  -8.657   2.301  0.00  0.00    +0.000 C 
ATOM      5  C12 UNL     1      15.587  -7.600   3.388  0.00  0.00    +0.000 C 
ATOM      6  C13 UNL     1      16.886  -8.319   1.274  0.00  0.00    +0.000 C 
ENDROOT
BRANCH   1  10
ATOM      7  C3  UNL     1      17.629  -8.351  -3.710  0.00  0.00    +0.000 C 
ATOM      8  C4  UNL     1      17.976  -7.117  -3.181  0.00  0.00    +0.000 C 
ATOM      9  C5  UNL     1      17.526  -6.763  -1.901  0.00  0.00    +0.000 C 
ATOM     10  C7  UNL     1      16.722  -7.654  -1.169  0.00  0.00    +0.000 C 
ATOM     11  C20 UNL     1      16.441  -8.870  -1.800  0.00  0.00    +0.000 C 
ATOM     12  N2  UNL     1      16.873  -9.234  -3.026  0.00  0.00    +0.000 NA
BRANCH   7  14
ATOM     13  C1  UNL     1      18.141 -10.289  -5.208  0.00  0.00    +0.000 C 
ATOM     14  C2  UNL     1      18.126  -8.774  -5.066  0.00  0.00    +0.000 C 
ENDBRANCH   7  14
BRANCH   9  15
ATOM     15  C6  UNL     1      17.951  -5.441  -1.379  0.00  0.00    +0.000 C 
ATOM     16  N1  UNL     1      17.277  -4.360  -1.628  0.00  0.00    +0.000 NA
BRANCH  16  17
ATOM     17  O1  UNL     1      17.911  -3.276  -1.011  0.00  0.00    +0.000 OA
ATOM     18  H   UNL     1      18.761  -3.005  -1.300  0.00  0.00    +0.000 HD
ENDBRANCH  16  17
ENDBRANCH   9  15
ENDBRANCH   1  10
BRANCH   6  19
ATOM     19  C14 UNL     1      18.133  -7.709   1.901  0.00  0.00    +0.000 C 
ATOM     20  O2  UNL     1      18.292  -6.491   1.979  0.00  0.00    +0.000 OA
BRANCH  19  21
ATOM     21  C15 UNL     1      19.172  -8.668   2.459  0.00  0.00    +0.000 C 
BRANCH  21  22
ATOM     22  C16 UNL     1      20.018  -8.094   3.609  0.00  0.00    +0.000 C 
ATOM     23  C17 UNL     1      19.830  -8.890   4.903  0.00  0.00    +0.000 C 
BRANCH  22  24
ATOM     24  C18 UNL     1      21.503  -7.965   3.219  0.00  0.00    +0.000 C 
ATOM     25  C19 UNL     1      22.315  -9.220   3.509  0.00  0.00    +0.000 C 
ENDBRANCH  22  24
ENDBRANCH  21  22
ENDBRANCH  19  21
ENDBRANCH   6  19
TORSDOF 8
ENDMDL
MODEL 5
REMARK VINA RESULT:    -5.983     27.215     29.993
REMARK INTER + INTRA:         -10.239
REMARK INTER:                  -8.413
REMARK INTRA:                  -1.826
REMARK UNBOUND:                -1.633
REMARK  Name = laboratorio_evolutivo\Gen4_Mutante_7.pdb
REMARK  12 active torsions:
REMARK  status: ('A' for Active; 'I' for Inactive)
REMARK    1  A    between atoms: C1_1  and  C2_2
REMARK    2  A    between atoms: C2_2  and  C3_3
REMARK    3  A    between atoms: C5_5  and  C6_6
REMARK    4  A    between atoms: N1_7  and  O1_8
REMARK    5  A    between atoms: C7_9  and  C8_10
REMARK    6  A    between atoms: C11_13  and  C12_14
REMARK    7  A    between atoms: C13_15  and  C14_16
REMARK    8  A    between atoms: C14_16  and  C15_18
REMARK    9  A    between atoms: C15_18  and  C16_19
REMARK   10  A    between atoms: C16_19  and  C17_20
REMARK   11  A    between atoms: C16_19  and  C18_21
REMARK   12  A    between atoms: C18_21  and  C19_22
REMARK                            x       y       z     vdW  Elec       q    Type
REMARK                         _______ _______ _______ _____ _____    ______ ____
ROOT
ATOM      1  C8  UNL     1      22.041  22.036  18.714  0.00  0.00    +0.000 C 
ATOM      2  C9  UNL     1      22.592  23.260  19.483  0.00  0.00    +0.000 C 
ATOM      3  C10 UNL     1      24.083  23.324  19.164  0.00  0.00    +0.000 C 
ATOM      4  C11 UNL     1      24.206  22.708  17.769  0.00  0.00    +0.000 C 
ATOM      5  C12 UNL     1      23.876  23.726  16.676  0.00  0.00    +0.000 C 
ATOM      6  C13 UNL     1      23.230  21.523  17.860  0.00  0.00    +0.000 C 
ENDROOT
BRANCH   1  10
ATOM      7  C3  UNL     1      20.650  18.814  21.199  0.00  0.00    +0.000 C 
ATOM      8  C4  UNL     1      19.719  19.757  20.787  0.00  0.00    +0.000 C 
ATOM      9  C5  UNL     1      20.131  20.826  19.980  0.00  0.00    +0.000 C 
ATOM     10  C7  UNL     1      21.481  20.942  19.604  0.00  0.00    +0.000 C 
ATOM     11  C20 UNL     1      22.326  19.933  20.073  0.00  0.00    +0.000 C 
ATOM     12  N2  UNL     1      21.948  18.888  20.841  0.00  0.00    +0.000 NA
BRANCH   7  14
ATOM     13  C1  UNL     1      21.291  16.543  22.031  0.00  0.00    +0.000 C 
ATOM     14  C2  UNL     1      20.232  17.635  22.035  0.00  0.00    +0.000 C 
ENDBRANCH   7  14
BRANCH   9  15
ATOM     15  C6  UNL     1      19.086  21.787  19.550  0.00  0.00    +0.000 C 
ATOM     16  N1  UNL     1      18.519  21.704  18.385  0.00  0.00    +0.000 NA
BRANCH  16  17
ATOM     17  O1  UNL     1      17.582  22.735  18.261  0.00  0.00    +0.000 OA
ATOM     18  H   UNL     1      16.957  22.719  17.562  0.00  0.00    +0.000 HD
ENDBRANCH  16  17
ENDBRANCH   9  15
ENDBRANCH   1  10
BRANCH   6  19
ATOM     19  C14 UNL     1      22.816  20.978  16.499  0.00  0.00    +0.000 C 
ATOM     20  O2  UNL     1      23.584  20.312  15.805  0.00  0.00    +0.000 OA
BRANCH  19  21
ATOM     21  C15 UNL     1      21.397  21.264  16.038  0.00  0.00    +0.000 C 
BRANCH  21  22
ATOM     22  C16 UNL     1      20.455  20.047  16.078  0.00  0.00    +0.000 C 
ATOM     23  C17 UNL     1      19.889  19.724  14.693  0.00  0.00    +0.000 C 
BRANCH  22  24
ATOM     24  C18 UNL     1      21.127  18.824  16.729  0.00  0.00    +0.000 C 
ATOM     25  C19 UNL     1      20.160  17.948  17.514  0.00  0.00    +0.000 C 
ENDBRANCH  22  24
ENDBRANCH  21  22
ENDBRANCH  19  21
ENDBRANCH   6  19
TORSDOF 8
ENDMDL
MODEL 6
REMARK VINA RESULT:    -5.899      2.393      5.021
REMARK INTER + INTRA:         -10.118
REMARK INTER:                  -8.523
REMARK INTRA:                  -1.594
REMARK UNBOUND:                -1.633
REMARK  Name = laboratorio_evolutivo\Gen4_Mutante_7.pdb
REMARK  12 active torsions:
REMARK  status: ('A' for Active; 'I' for Inactive)
REMARK    1  A    between atoms: C1_1  and  C2_2
REMARK    2  A    between atoms: C2_2  and  C3_3
REMARK    3  A    between atoms: C5_5  and  C6_6
REMARK    4  A    between atoms: N1_7  and  O1_8
REMARK    5  A    between atoms: C7_9  and  C8_10
REMARK    6  A    between atoms: C11_13  and  C12_14
REMARK    7  A    between atoms: C13_15  and  C14_16
REMARK    8  A    between atoms: C14_16  and  C15_18
REMARK    9  A    between atoms: C15_18  and  C16_19
REMARK   10  A    between atoms: C16_19  and  C17_20
REMARK   11  A    between atoms: C16_19  and  C18_21
REMARK   12  A    between atoms: C18_21  and  C19_22
REMARK                            x       y       z     vdW  Elec       q    Type
REMARK                         _______ _______ _______ _____ _____    ______ ____
ROOT
ATOM      1  C8  UNL     1       0.819  -0.605  18.074  0.00  0.00    +0.000 C 
ATOM      2  C9  UNL     1      -0.475   0.120  17.633  0.00  0.00    +0.000 C 
ATOM      3  C10 UNL     1      -0.201   0.657  16.231  0.00  0.00    +0.000 C 
ATOM      4  C11 UNL     1       0.815  -0.318  15.634  0.00  0.00    +0.000 C 
ATOM      5  C12 UNL     1       0.131  -1.568  15.078  0.00  0.00    +0.000 C 
ATOM      6  C13 UNL     1       1.747  -0.573  16.831  0.00  0.00    +0.000 C 
ENDROOT
BRANCH   1  10
ATOM      7  C3  UNL     1       2.859   1.257  21.370  0.00  0.00    +0.000 C 
ATOM      8  C4  UNL     1       2.120   0.113  21.634  0.00  0.00    +0.000 C 
ATOM      9  C5  UNL     1       1.435  -0.522  20.589  0.00  0.00    +0.000 C 
ATOM     10  C7  UNL     1       1.493   0.007  19.288  0.00  0.00    +0.000 C 
ATOM     11  C20 UNL     1       2.271   1.158  19.140  0.00  0.00    +0.000 C 
ATOM     12  N2  UNL     1       2.948   1.779  20.130  0.00  0.00    +0.000 NA
BRANCH   7  14
ATOM     13  C1  UNL     1       3.775   3.433  22.198  0.00  0.00    +0.000 C 
ATOM     14  C2  UNL     1       3.635   1.941  22.463  0.00  0.00    +0.000 C 
ENDBRANCH   7  14
BRANCH   9  15
ATOM     15  C6  UNL     1       0.682  -1.755  20.929  0.00  0.00    +0.000 C 
ATOM     16  N1  UNL     1       1.201  -2.690  21.665  0.00  0.00    +0.000 NA
BRANCH  16  17
ATOM     17  O1  UNL     1       0.268  -3.721  21.816  0.00  0.00    +0.000 OA
ATOM     18  H   UNL     1       0.330  -4.307  22.544  0.00  0.00    +0.000 HD
ENDBRANCH  16  17
ENDBRANCH   9  15
ENDBRANCH   1  10
BRANCH   6  19
ATOM     19  C14 UNL     1       2.600  -1.826  16.673  0.00  0.00    +0.000 C 
ATOM     20  O2  UNL     1       3.461  -1.919  15.798  0.00  0.00    +0.000 OA
BRANCH  19  21
ATOM     21  C15 UNL     1       2.368  -2.955  17.663  0.00  0.00    +0.000 C 
BRANCH  21  22
ATOM     22  C16 UNL     1       1.304  -3.977  17.227  0.00  0.00    +0.000 C 
ATOM     23  C17 UNL     1       1.847  -4.946  16.173  0.00  0.00    +0.000 C 
BRANCH  22  24
ATOM     24  C18 UNL     1       0.692  -4.717  18.432  0.00  0.00    +0.000 C 
ATOM     25  C19 UNL     1       0.914  -6.222  18.395  0.00  0.00    +0.000 C 
ENDBRANCH  22  24
ENDBRANCH  21  22
ENDBRANCH  19  21
ENDBRANCH   6  19
TORSDOF 8
ENDMDL
MODEL 7
REMARK VINA RESULT:    -5.889     24.672     27.271
REMARK INTER + INTRA:         -10.104
REMARK INTER:                  -8.436
REMARK INTRA:                  -1.668
REMARK UNBOUND:                -1.633
REMARK  Name = laboratorio_evolutivo\Gen4_Mutante_7.pdb
REMARK  12 active torsions:
REMARK  status: ('A' for Active; 'I' for Inactive)
REMARK    1  A    between atoms: C1_1  and  C2_2
REMARK    2  A    between atoms: C2_2  and  C3_3
REMARK    3  A    between atoms: C5_5  and  C6_6
REMARK    4  A    between atoms: N1_7  and  O1_8
REMARK    5  A    between atoms: C7_9  and  C8_10
REMARK    6  A    between atoms: C11_13  and  C12_14
REMARK    7  A    between atoms: C13_15  and  C14_16
REMARK    8  A    between atoms: C14_16  and  C15_18
REMARK    9  A    between atoms: C15_18  and  C16_19
REMARK   10  A    between atoms: C16_19  and  C17_20
REMARK   11  A    between atoms: C16_19  and  C18_21
REMARK   12  A    between atoms: C18_21  and  C19_22
REMARK                            x       y       z     vdW  Elec       q    Type
REMARK                         _______ _______ _______ _____ _____    ______ ____
ROOT
ATOM      1  C8  UNL     1      16.809  -5.706   1.122  0.00  0.00    +0.000 C 
ATOM      2  C9  UNL     1      16.007  -4.763   2.050  0.00  0.00    +0.000 C 
ATOM      3  C10 UNL     1      16.197  -3.357   1.490  0.00  0.00    +0.000 C 
ATOM      4  C11 UNL     1      16.411  -3.563  -0.010  0.00  0.00    +0.000 C 
ATOM      5  C12 UNL     1      15.081  -3.732  -0.747  0.00  0.00    +0.000 C 
ATOM      6  C13 UNL     1      17.320  -4.803  -0.032  0.00  0.00    +0.000 C 
ENDROOT
BRANCH   1  10
ATOM      7  C3  UNL     1      20.193  -7.630   2.949  0.00  0.00    +0.000 C 
ATOM      8  C4  UNL     1      18.960  -8.255   3.061  0.00  0.00    +0.000 C 
ATOM      9  C5  UNL     1      17.829  -7.659   2.484  0.00  0.00    +0.000 C 
ATOM     10  C7  UNL     1      17.950  -6.432   1.808  0.00  0.00    +0.000 C 
ATOM     11  C20 UNL     1      19.241  -5.899   1.755  0.00  0.00    +0.000 C 
ATOM     12  N2  UNL     1      20.345  -6.462   2.293  0.00  0.00    +0.000 NA
BRANCH   7  14
ATOM     13  C1  UNL     1      21.087  -9.399   4.476  0.00  0.00    +0.000 C 
ATOM     14  C2  UNL     1      21.431  -8.262   3.526  0.00  0.00    +0.000 C 
ENDBRANCH   7  14
BRANCH   9  15
ATOM     15  C6  UNL     1      16.544  -8.388   2.615  0.00  0.00    +0.000 C 
ATOM     16  N1  UNL     1      16.470  -9.675   2.459  0.00  0.00    +0.000 NA
BRANCH  16  17
ATOM     17  O1  UNL     1      15.142 -10.079   2.639  0.00  0.00    +0.000 OA
ATOM     18  H   UNL     1      14.493  -9.856   2.002  0.00  0.00    +0.000 HD
ENDBRANCH  16  17
ENDBRANCH   9  15
ENDBRANCH   1  10
BRANCH   6  19
ATOM     19  C14 UNL     1      17.354  -5.502  -1.385  0.00  0.00    +0.000 C 
ATOM     20  O2  UNL     1      17.907  -4.998  -2.362  0.00  0.00    +0.000 OA
BRANCH  19  21
ATOM     21  C15 UNL     1      16.700  -6.870  -1.479  0.00  0.00    +0.000 C 
BRANCH  21  22
ATOM     22  C16 UNL     1      17.639  -7.995  -1.949  0.00  0.00    +0.000 C 
ATOM     23  C17 UNL     1      17.841  -9.055  -0.863  0.00  0.00    +0.000 C 
BRANCH  22  24
ATOM     24  C18 UNL     1      17.170  -8.613  -3.280  0.00  0.00    +0.000 C 
ATOM     25  C19 UNL     1      18.258  -8.653  -4.345  0.00  0.00    +0.000 C 
ENDBRANCH  22  24
ENDBRANCH  21  22
ENDBRANCH  19  21
ENDBRANCH   6  19
TORSDOF 8
ENDMDL
MODEL 8
REMARK VINA RESULT:    -5.883     25.175     27.317
REMARK INTER + INTRA:         -10.095
REMARK INTER:                  -8.211
REMARK INTRA:                  -1.884
REMARK UNBOUND:                -1.633
REMARK  Name = laboratorio_evolutivo\Gen4_Mutante_7.pdb
REMARK  12 active torsions:
REMARK  status: ('A' for Active; 'I' for Inactive)
REMARK    1  A    between atoms: C1_1  and  C2_2
REMARK    2  A    between atoms: C2_2  and  C3_3
REMARK    3  A    between atoms: C5_5  and  C6_6
REMARK    4  A    between atoms: N1_7  and  O1_8
REMARK    5  A    between atoms: C7_9  and  C8_10
REMARK    6  A    between atoms: C11_13  and  C12_14
REMARK    7  A    between atoms: C13_15  and  C14_16
REMARK    8  A    between atoms: C14_16  and  C15_18
REMARK    9  A    between atoms: C15_18  and  C16_19
REMARK   10  A    between atoms: C16_19  and  C17_20
REMARK   11  A    between atoms: C16_19  and  C18_21
REMARK   12  A    between atoms: C18_21  and  C19_22
REMARK                            x       y       z     vdW  Elec       q    Type
REMARK                         _______ _______ _______ _____ _____    ______ ____
ROOT
ATOM      1  C8  UNL     1      18.032  -7.085   1.526  0.00  0.00    +0.000 C 
ATOM      2  C9  UNL     1      17.787  -5.611   1.927  0.00  0.00    +0.000 C 
ATOM      3  C10 UNL     1      18.085  -4.778   0.683  0.00  0.00    +0.000 C 
ATOM      4  C11 UNL     1      17.761  -5.706  -0.489  0.00  0.00    +0.000 C 
ATOM      5  C12 UNL     1      16.262  -5.721  -0.794  0.00  0.00    +0.000 C 
ATOM      6  C13 UNL     1      18.330  -7.047   0.003  0.00  0.00    +0.000 C 
ENDROOT
BRANCH   1  10
ATOM      7  C3  UNL     1      21.352  -8.914   3.555  0.00  0.00    +0.000 C 
ATOM      8  C4  UNL     1      20.080  -9.370   3.864  0.00  0.00    +0.000 C 
ATOM      9  C5  UNL     1      18.969  -8.797   3.229  0.00  0.00    +0.000 C 
ATOM     10  C7  UNL     1      19.150  -7.762   2.295  0.00  0.00    +0.000 C 
ATOM     11  C20 UNL     1      20.477  -7.388   2.061  0.00  0.00    +0.000 C 
ATOM     12  N2  UNL     1      21.561  -7.935   2.652  0.00  0.00    +0.000 NA
BRANCH   7  14
ATOM     13  C1  UNL     1      23.810  -9.333   3.338  0.00  0.00    +0.000 C 
ATOM     14  C2  UNL     1      22.568  -9.533   4.193  0.00  0.00    +0.000 C 
ENDBRANCH   7  14
BRANCH   9  15
ATOM     15  C6  UNL     1      17.636  -9.345   3.582  0.00  0.00    +0.000 C 
ATOM     16  N1  UNL     1      17.296 -10.561   3.282  0.00  0.00    +0.000 NA
BRANCH  16  17
ATOM     17  O1  UNL     1      15.993 -10.795   3.735  0.00  0.00    +0.000 OA
ATOM     18  H   UNL     1      15.543 -10.136   4.228  0.00  0.00    +0.000 HD
ENDBRANCH  16  17
ENDBRANCH   9  15
ENDBRANCH   1  10
BRANCH   6  19
ATOM     19  C14 UNL     1      17.783  -8.249  -0.756  0.00  0.00    +0.000 C 
ATOM     20  O2  UNL     1      17.971  -8.394  -1.964  0.00  0.00    +0.000 OA
BRANCH  19  21
ATOM     21  C15 UNL     1      17.014  -9.287   0.044  0.00  0.00    +0.000 C 
BRANCH  21  22
ATOM     22  C16 UNL     1      15.663  -9.694  -0.570  0.00  0.00    +0.000 C 
ATOM     23  C17 UNL     1      15.389 -11.190  -0.395  0.00  0.00    +0.000 C 
BRANCH  22  24
ATOM     24  C18 UNL     1      14.507  -8.828  -0.036  0.00  0.00    +0.000 C 
ATOM     25  C19 UNL     1      14.662  -8.447   1.430  0.00  0.00    +0.000 C 
ENDBRANCH  22  24
ENDBRANCH  21  22
ENDBRANCH  19  21
ENDBRANCH   6  19
TORSDOF 8
ENDMDL
MODEL 9
REMARK VINA RESULT:    -5.882      2.199      5.746
REMARK INTER + INTRA:         -10.093
REMARK INTER:                  -8.204
REMARK INTRA:                  -1.889
REMARK UNBOUND:                -1.633
REMARK  Name = laboratorio_evolutivo\Gen4_Mutante_7.pdb
REMARK  12 active torsions:
REMARK  status: ('A' for Active; 'I' for Inactive)
REMARK    1  A    between atoms: C1_1  and  C2_2
REMARK    2  A    between atoms: C2_2  and  C3_3
REMARK    3  A    between atoms: C5_5  and  C6_6
REMARK    4  A    between atoms: N1_7  and  O1_8
REMARK    5  A    between atoms: C7_9  and  C8_10
REMARK    6  A    between atoms: C11_13  and  C12_14
REMARK    7  A    between atoms: C13_15  and  C14_16
REMARK    8  A    between atoms: C14_16  and  C15_18
REMARK    9  A    between atoms: C15_18  and  C16_19
REMARK   10  A    between atoms: C16_19  and  C17_20
REMARK   11  A    between atoms: C16_19  and  C18_21
REMARK   12  A    between atoms: C18_21  and  C19_22
REMARK                            x       y       z     vdW  Elec       q    Type
REMARK                         _______ _______ _______ _____ _____    ______ ____
ROOT
ATOM      1  C8  UNL     1       1.567   0.753  21.334  0.00  0.00    +0.000 C 
ATOM      2  C9  UNL     1       2.486   0.452  22.542  0.00  0.00    +0.000 C 
ATOM      3  C10 UNL     1       3.857   1.015  22.181  0.00  0.00    +0.000 C 
ATOM      4  C11 UNL     1       3.561   2.186  21.243  0.00  0.00    +0.000 C 
ATOM      5  C12 UNL     1       3.191   3.448  22.023  0.00  0.00    +0.000 C 
ATOM      6  C13 UNL     1       2.429   1.614  20.372  0.00  0.00    +0.000 C 
ENDROOT
BRANCH   1  10
ATOM      7  C3  UNL     1       0.250  -2.819  19.335  0.00  0.00    +0.000 C 
ATOM      8  C4  UNL     1      -0.678  -1.805  19.519  0.00  0.00    +0.000 C 
ATOM      9  C5  UNL     1      -0.292  -0.626  20.170  0.00  0.00    +0.000 C 
ATOM     10  C7  UNL     1       1.025  -0.483  20.641  0.00  0.00    +0.000 C 
ATOM     11  C20 UNL     1       1.874  -1.566  20.395  0.00  0.00    +0.000 C 
ATOM     12  N2  UNL     1       1.525  -2.706  19.759  0.00  0.00    +0.000 NA
BRANCH   7  14
ATOM     13  C1  UNL     1      -1.150  -3.817  17.517  0.00  0.00    +0.000 C 
ATOM     14  C2  UNL     1      -0.123  -4.083  18.607  0.00  0.00    +0.000 C 
ENDBRANCH   7  14
BRANCH   9  15
ATOM     15  C6  UNL     1      -1.323   0.432  20.314  0.00  0.00    +0.000 C 
ATOM     16  N1  UNL     1      -1.694   1.164  19.308  0.00  0.00    +0.000 NA
BRANCH  16  17
ATOM     17  O1  UNL     1      -2.670   2.068  19.740  0.00  0.00    +0.000 OA
ATOM     18  H   UNL     1      -3.572   1.814  19.752  0.00  0.00    +0.000 HD
ENDBRANCH  16  17
ENDBRANCH   9  15
ENDBRANCH   1  10
BRANCH   6  19
ATOM     19  C14 UNL     1       1.636   2.685  19.634  0.00  0.00    +0.000 C 
ATOM     20  O2  UNL     1       0.837   3.418  20.216  0.00  0.00    +0.000 OA
BRANCH  19  21
ATOM     21  C15 UNL     1       1.893   2.837  18.144  0.00  0.00    +0.000 C 
BRANCH  21  22
ATOM     22  C16 UNL     1       1.176   1.798  17.264  0.00  0.00    +0.000 C 
ATOM     23  C17 UNL     1       0.629   2.425  15.979  0.00  0.00    +0.000 C 
BRANCH  22  24
ATOM     24  C18 UNL     1       2.069   0.576  16.977  0.00  0.00    +0.000 C 
ATOM     25  C19 UNL     1       1.289  -0.652  16.527  0.00  0.00    +0.000 C 
ENDBRANCH  22  24
ENDBRANCH  21  22
ENDBRANCH  19  21
ENDBRANCH   6  19
TORSDOF 8
ENDMDL
