MODEL 1
REMARK VINA RESULT:    -7.193      0.000      0.000
REMARK INTER + INTRA:         -11.426
REMARK INTER:                  -9.926
REMARK INTRA:                  -1.500
REMARK UNBOUND:                -1.500
REMARK  Name = laboratorio_evolutivo\Gen4_Mutante_2.pdb
REMARK  12 active torsions:
REMARK  status: ('A' for Active; 'I' for Inactive)
REMARK    1  A    between atoms: C1_1  and  C2_2
REMARK    2  A    between atoms: C4_4  and  C5_5
REMARK    3  A    between atoms: N1_6  and  O1_7
REMARK    4  A    between atoms: C6_8  and  C7_9
REMARK    5  A    between atoms: C10_12  and  C11_13
REMARK    6  A    between atoms: C12_14  and  C13_15
REMARK    7  A    between atoms: C13_15  and  C14_17
REMARK    8  A    between atoms: C14_17  and  C15_18
REMARK    9  A    between atoms: C15_18  and  C16_19
REMARK   10  A    between atoms: C15_18  and  C17_20
REMARK   11  A    between atoms: C17_20  and  C18_21
REMARK   12  A    between atoms: C17_20  and  C19_22
REMARK                            x       y       z     vdW  Elec       q    Type
REMARK                         _______ _______ _______ _____ _____    ______ ____
ROOT
ATOM      1  C7  UNL     1       3.682  60.413  71.797  0.00  0.00    +0.000 C 
ATOM      2  C8  UNL     1       4.880  59.927  70.950  0.00  0.00    +0.000 C 
ATOM      3  C9  UNL     1       5.484  61.186  70.315  0.00  0.00    +0.000 C 
ATOM      4  C10 UNL     1       4.570  62.350  70.714  0.00  0.00    +0.000 C 
ATOM      5  C11 UNL     1       4.506  63.459  69.676  0.00  0.00    +0.000 C 
ATOM      6  C12 UNL     1       3.227  61.698  71.079  0.00  0.00    +0.000 C 
ENDROOT
BRANCH   1  11
ATOM      7  C1  UNL     1      -0.420  56.451  72.850  0.00  0.00    +0.000 C 
ATOM      8  C2  UNL     1       0.620  57.504  72.615  0.00  0.00    +0.000 C 
ATOM      9  C3  UNL     1       0.757  58.566  73.493  0.00  0.00    +0.000 C 
ATOM     10  C4  UNL     1       1.735  59.540  73.243  0.00  0.00    +0.000 C 
ATOM     11  C6  UNL     1       2.585  59.425  72.126  0.00  0.00    +0.000 C 
ATOM     12  C20 UNL     1       2.343  58.323  71.307  0.00  0.00    +0.000 C 
ATOM     13  N2  UNL     1       1.397  57.378  71.524  0.00  0.00    +0.000 NA
BRANCH  10  14
ATOM     14  C5  UNL     1       1.758  60.643  74.232  0.00  0.00    +0.000 C 
ATOM     15  N1  UNL     1       1.149  60.608  75.373  0.00  0.00    +0.000 NA
BRANCH  15  16
ATOM     16  O1  UNL     1       1.400  61.802  76.058  0.00  0.00    +0.000 OA
ATOM     17  H   UNL     1       1.938  61.797  76.825  0.00  0.00    +0.000 HD
ENDBRANCH  15  16
ENDBRANCH  10  14
ENDBRANCH   1  11
BRANCH   6  18
ATOM     18  C13 UNL     1       2.327  61.410  69.874  0.00  0.00    +0.000 C 
ATOM     19  O2  UNL     1       2.668  60.633  68.982  0.00  0.00    +0.000 OA
BRANCH  18  20
ATOM     20  C14 UNL     1       0.992  62.145  69.854  0.00  0.00    +0.000 C 
BRANCH  20  21
ATOM     21  C15 UNL     1       0.929  63.373  70.786  0.00  0.00    +0.000 C 
ATOM     22  C16 UNL     1       0.846  64.666  69.963  0.00  0.00    +0.000 C 
BRANCH  21  23
ATOM     23  C17 UNL     1      -0.229  63.227  71.815  0.00  0.00    +0.000 C 
ATOM     24  C18 UNL     1      -0.814  61.809  71.821  0.00  0.00    +0.000 C 
ATOM     25  C19 UNL     1       0.153  63.631  73.241  0.00  0.00    +0.000 C 
ENDBRANCH  21  23
ENDBRANCH  20  21
ENDBRANCH  18  20
ENDBRANCH   6  18
TORSDOF 7
ENDMDL
MODEL 2
REMARK VINA RESULT:    -6.775      1.902      3.343
REMARK INTER + INTRA:         -10.850
REMARK INTER:                 -10.127
REMARK INTRA:                  -0.722
REMARK UNBOUND:                -1.500
REMARK  Name = laboratorio_evolutivo\Gen4_Mutante_2.pdb
REMARK  12 active torsions:
REMARK  status: ('A' for Active; 'I' for Inactive)
REMARK    1  A    between atoms: C1_1  and  C2_2
REMARK    2  A    between atoms: C4_4  and  C5_5
REMARK    3  A    between atoms: N1_6  and  O1_7
REMARK    4  A    between atoms: C6_8  and  C7_9
REMARK    5  A    between atoms: C10_12  and  C11_13
REMARK    6  A    between atoms: C12_14  and  C13_15
REMARK    7  A    between atoms: C13_15  and  C14_17
REMARK    8  A    between atoms: C14_17  and  C15_18
REMARK    9  A    between atoms: C15_18  and  C16_19
REMARK   10  A    between atoms: C15_18  and  C17_20
REMARK   11  A    between atoms: C17_20  and  C18_21
REMARK   12  A    between atoms: C17_20  and  C19_22
REMARK                            x       y       z     vdW  Elec       q    Type
REMARK                         _______ _______ _______ _____ _____    ______ ____
ROOT
ATOM      1  C7  UNL     1       2.507  60.374  72.938  0.00  0.00    +0.000 C 
ATOM      2  C8  UNL     1       2.976  58.965  72.509  0.00  0.00    +0.000 C 
ATOM      3  C9  UNL     1       4.349  59.161  71.851  0.00  0.00    +0.000 C 
ATOM      4  C10 UNL     1       4.596  60.674  71.814  0.00  0.00    +0.000 C 
ATOM      5  C11 UNL     1       5.433  61.126  70.628  0.00  0.00    +0.000 C 
ATOM      6  C12 UNL     1       3.202  61.311  71.931  0.00  0.00    +0.000 C 
ENDROOT
BRANCH   1  11
ATOM      7  C1  UNL     1      -3.219  61.012  73.598  0.00  0.00    +0.000 C 
ATOM      8  C2  UNL     1      -1.732  60.895  73.445  0.00  0.00    +0.000 C 
ATOM      9  C3  UNL     1      -0.893  61.864  73.967  0.00  0.00    +0.000 C 
ATOM     10  C4  UNL     1       0.493  61.731  73.801  0.00  0.00    +0.000 C 
ATOM     11  C6  UNL     1       1.027  60.611  73.136  0.00  0.00    +0.000 C 
ATOM     12  C20 UNL     1       0.084  59.709  72.642  0.00  0.00    +0.000 C 
ATOM     13  N2  UNL     1      -1.258  59.826  72.781  0.00  0.00    +0.000 NA
BRANCH  10  14
ATOM     14  C5  UNL     1       1.281  62.851  74.369  0.00  0.00    +0.000 C 
ATOM     15  N1  UNL     1       0.888  63.588  75.358  0.00  0.00    +0.000 NA
BRANCH  15  16
ATOM     16  O1  UNL     1       1.882  64.528  75.646  0.00  0.00    +0.000 OA
ATOM     17  H   UNL     1       1.922  65.330  75.163  0.00  0.00    +0.000 HD
ENDBRANCH  15  16
ENDBRANCH  10  14
ENDBRANCH   1  11
BRANCH   6  18
ATOM     18  C13 UNL     1       2.448  61.406  70.601  0.00  0.00    +0.000 C 
ATOM     19  O2  UNL     1       2.084  60.401  69.989  0.00  0.00    +0.000 OA
BRANCH  18  20
ATOM     20  C14 UNL     1       2.182  62.817  70.090  0.00  0.00    +0.000 C 
BRANCH  20  21
ATOM     21  C15 UNL     1       3.377  63.464  69.360  0.00  0.00    +0.000 C 
ATOM     22  C16 UNL     1       3.488  62.921  67.929  0.00  0.00    +0.000 C 
BRANCH  21  23
ATOM     23  C17 UNL     1       3.286  65.017  69.420  0.00  0.00    +0.000 C 
ATOM     24  C18 UNL     1       4.165  65.683  68.355  0.00  0.00    +0.000 C 
ATOM     25  C19 UNL     1       1.858  65.559  69.321  0.00  0.00    +0.000 C 
ENDBRANCH  21  23
ENDBRANCH  20  21
ENDBRANCH  18  20
ENDBRANCH   6  18
TORSDOF 7
ENDMDL
MODEL 3
REMARK VINA RESULT:    -6.577      2.538      5.328
REMARK INTER + INTRA:         -10.576
REMARK INTER:                  -9.131
REMARK INTRA:                  -1.445
REMARK UNBOUND:                -1.500
REMARK  Name = laboratorio_evolutivo\Gen4_Mutante_2.pdb
REMARK  12 active torsions:
REMARK  status: ('A' for Active; 'I' for Inactive)
REMARK    1  A    between atoms: C1_1  and  C2_2
REMARK    2  A    between atoms: C4_4  and  C5_5
REMARK    3  A    between atoms: N1_6  and  O1_7
REMARK    4  A    between atoms: C6_8  and  C7_9
REMARK    5  A    between atoms: C10_12  and  C11_13
REMARK    6  A    between atoms: C12_14  and  C13_15
REMARK    7  A    between atoms: C13_15  and  C14_17
REMARK    8  A    between atoms: C14_17  and  C15_18
REMARK    9  A    between atoms: C15_18  and  C16_19
REMARK   10  A    between atoms: C15_18  and  C17_20
REMARK   11  A    between atoms: C17_20  and  C18_21
REMARK   12  A    between atoms: C17_20  and  C19_22
REMARK                            x       y       z     vdW  Elec       q    Type
REMARK                         _______ _______ _______ _____ _____    ______ ____
ROOT
ATOM      1  C7  UNL     1       2.612  59.950  70.192  0.00  0.00    +0.000 C 
ATOM      2  C8  UNL     1       3.502  58.687  70.170  0.00  0.00    +0.000 C 
ATOM      3  C9  UNL     1       2.728  57.614  70.947  0.00  0.00    +0.000 C 
ATOM      4  C10 UNL     1       1.469  58.301  71.490  0.00  0.00    +0.000 C 
ATOM      5  C11 UNL     1       0.984  57.727  72.812  0.00  0.00    +0.000 C 
ATOM      6  C12 UNL     1       1.801  59.801  71.493  0.00  0.00    +0.000 C 
ENDROOT
BRANCH   1  11
ATOM      7  C1  UNL     1       5.387  64.981  69.400  0.00  0.00    +0.000 C 
ATOM      8  C2  UNL     1       4.625  63.706  69.602  0.00  0.00    +0.000 C 
ATOM      9  C3  UNL     1       3.251  63.675  69.443  0.00  0.00    +0.000 C 
ATOM     10  C4  UNL     1       2.564  62.469  69.646  0.00  0.00    +0.000 C 
ATOM     11  C6  UNL     1       3.268  61.297  69.982  0.00  0.00    +0.000 C 
ATOM     12  C20 UNL     1       4.646  61.454  70.129  0.00  0.00    +0.000 C 
ATOM     13  N2  UNL     1       5.326  62.612  69.949  0.00  0.00    +0.000 NA
BRANCH  10  14
ATOM     14  C5  UNL     1       1.095  62.574  69.483  0.00  0.00    +0.000 C 
ATOM     15  N1  UNL     1       0.428  63.676  69.600  0.00  0.00    +0.000 NA
BRANCH  15  16
ATOM     16  O1  UNL     1      -0.926  63.415  69.363  0.00  0.00    +0.000 OA
ATOM     17  H   UNL     1      -1.203  62.549  69.136  0.00  0.00    +0.000 HD
ENDBRANCH  15  16
ENDBRANCH  10  14
ENDBRANCH   1  11
BRANCH   6  18
ATOM     18  C13 UNL     1       2.580  60.264  72.728  0.00  0.00    +0.000 C 
ATOM     19  O2  UNL     1       3.623  59.712  73.079  0.00  0.00    +0.000 OA
BRANCH  18  20
ATOM     20  C14 UNL     1       1.982  61.443  73.485  0.00  0.00    +0.000 C 
BRANCH  20  21
ATOM     21  C15 UNL     1       0.590  61.168  74.092  0.00  0.00    +0.000 C 
ATOM     22  C16 UNL     1       0.650  61.242  75.624  0.00  0.00    +0.000 C 
BRANCH  21  23
ATOM     23  C17 UNL     1      -0.479  62.115  73.474  0.00  0.00    +0.000 C 
ATOM     24  C18 UNL     1       0.125  63.457  73.044  0.00  0.00    +0.000 C 
ATOM     25  C19 UNL     1      -1.251  61.501  72.305  0.00  0.00    +0.000 C 
ENDBRANCH  21  23
ENDBRANCH  20  21
ENDBRANCH  18  20
ENDBRANCH   6  18
TORSDOF 7
ENDMDL
MODEL 4
REMARK VINA RESULT:    -6.505      2.426      5.310
REMARK INTER + INTRA:         -10.478
REMARK INTER:                  -9.760
REMARK INTRA:                  -0.717
REMARK UNBOUND:                -1.500
REMARK  Name = laboratorio_evolutivo\Gen4_Mutante_2.pdb
REMARK  12 active torsions:
REMARK  status: ('A' for Active; 'I' for Inactive)
REMARK    1  A    between atoms: C1_1  and  C2_2
REMARK    2  A    between atoms: C4_4  and  C5_5
REMARK    3  A    between atoms: N1_6  and  O1_7
REMARK    4  A    between atoms: C6_8  and  C7_9
REMARK    5  A    between atoms: C10_12  and  C11_13
REMARK    6  A    between atoms: C12_14  and  C13_15
REMARK    7  A    between atoms: C13_15  and  C14_17
REMARK    8  A    between atoms: C14_17  and  C15_18
REMARK    9  A    between atoms: C15_18  and  C16_19
REMARK   10  A    between atoms: C15_18  and  C17_20
REMARK   11  A    between atoms: C17_20  and  C18_21
REMARK   12  A    between atoms: C17_20  and  C19_22
REMARK                            x       y       z     vdW  Elec       q    Type
REMARK                         _______ _______ _______ _____ _____    ______ ____
ROOT
ATOM      1  C7  UNL     1       1.664  60.037  70.409  0.00  0.00    +0.000 C 
ATOM      2  C8  UNL     1       2.770  59.021  70.044  0.00  0.00    +0.000 C 
ATOM      3  C9  UNL     1       2.517  57.790  70.924  0.00  0.00    +0.000 C 
ATOM      4  C10 UNL     1       1.350  58.155  71.848  0.00  0.00    +0.000 C 
ATOM      5  C11 UNL     1       1.411  57.475  73.206  0.00  0.00    +0.000 C 
ATOM      6  C12 UNL     1       1.321  59.691  71.870  0.00  0.00    +0.000 C 
ENDROOT
BRANCH   1  11
ATOM      7  C1  UNL     1       2.324  65.705  69.375  0.00  0.00    +0.000 C 
ATOM      8  C2  UNL     1       2.204  64.234  69.632  0.00  0.00    +0.000 C 
ATOM      9  C3  UNL     1       3.334  63.438  69.708  0.00  0.00    +0.000 C 
ATOM     10  C4  UNL     1       3.189  62.063  69.942  0.00  0.00    +0.000 C 
ATOM     11  C6  UNL     1       1.910  61.502  70.125  0.00  0.00    +0.000 C 
ATOM     12  C20 UNL     1       0.847  62.399  70.012  0.00  0.00    +0.000 C 
ATOM     13  N2  UNL     1       0.966  63.727  69.774  0.00  0.00    +0.000 NA
BRANCH  10  14
ATOM     14  C5  UNL     1       4.468  61.314  69.964  0.00  0.00    +0.000 C 
ATOM     15  N1  UNL     1       5.379  61.459  70.871  0.00  0.00    +0.000 NA
BRANCH  15  16
ATOM     16  O1  UNL     1       6.436  60.585  70.595  0.00  0.00    +0.000 OA
ATOM     17  H   UNL     1       7.027  60.772  69.892  0.00  0.00    +0.000 HD
ENDBRANCH  15  16
ENDBRANCH  10  14
ENDBRANCH   1  11
BRANCH   6  18
ATOM     18  C13 UNL     1       2.300  60.317  72.867  0.00  0.00    +0.000 C 
ATOM     19  O2  UNL     1       3.466  59.931  72.960  0.00  0.00    +0.000 OA
BRANCH  18  20
ATOM     20  C14 UNL     1       1.739  61.442  73.730  0.00  0.00    +0.000 C 
BRANCH  20  21
ATOM     21  C15 UNL     1       0.375  61.124  74.378  0.00  0.00    +0.000 C 
ATOM     22  C16 UNL     1       0.477  61.207  75.907  0.00  0.00    +0.000 C 
BRANCH  21  23
ATOM     23  C17 UNL     1      -0.741  62.034  73.788  0.00  0.00    +0.000 C 
ATOM     24  C18 UNL     1      -0.184  63.370  73.284  0.00  0.00    +0.000 C 
ATOM     25  C19 UNL     1      -1.564  61.370  72.682  0.00  0.00    +0.000 C 
ENDBRANCH  21  23
ENDBRANCH  20  21
ENDBRANCH  18  20
ENDBRANCH   6  18
TORSDOF 7
ENDMDL
MODEL 5
REMARK VINA RESULT:    -6.274      2.512      5.844
REMARK INTER + INTRA:         -10.158
REMARK INTER:                  -8.770
REMARK INTRA:                  -1.387
REMARK UNBOUND:                -1.500
REMARK  Name = laboratorio_evolutivo\Gen4_Mutante_2.pdb
REMARK  12 active torsions:
REMARK  status: ('A' for Active; 'I' for Inactive)
REMARK    1  A    between atoms: C1_1  and  C2_2
REMARK    2  A    between atoms: C4_4  and  C5_5
REMARK    3  A    between atoms: N1_6  and  O1_7
REMARK    4  A    between atoms: C6_8  and  C7_9
REMARK    5  A    between atoms: C10_12  and  C11_13
REMARK    6  A    between atoms: C12_14  and  C13_15
REMARK    7  A    between atoms: C13_15  and  C14_17
REMARK    8  A    between atoms: C14_17  and  C15_18
REMARK    9  A    between atoms: C15_18  and  C16_19
REMARK   10  A    between atoms: C15_18  and  C17_20
REMARK   11  A    between atoms: C17_20  and  C18_21
REMARK   12  A    between atoms: C17_20  and  C19_22
REMARK                            x       y       z     vdW  Elec       q    Type
REMARK                         _______ _______ _______ _____ _____    ______ ____
ROOT
ATOM      1  C7  UNL     1       1.204  62.525  73.554  0.00  0.00    +0.000 C 
ATOM      2  C8  UNL     1       0.204  63.662  73.864  0.00  0.00    +0.000 C 
ATOM      3  C9  UNL     1      -0.671  63.149  75.016  0.00  0.00    +0.000 C 
ATOM      4  C10 UNL     1      -0.237  61.701  75.274  0.00  0.00    +0.000 C 
ATOM      5  C11 UNL     1      -1.361  60.808  75.775  0.00  0.00    +0.000 C 
ATOM      6  C12 UNL     1       0.448  61.251  73.974  0.00  0.00    +0.000 C 
ENDROOT
BRANCH   1  11
ATOM      7  C1  UNL     1       3.515  62.610  68.236  0.00  0.00    +0.000 C 
ATOM      8  C2  UNL     1       2.944  62.545  69.620  0.00  0.00    +0.000 C 
ATOM      9  C3  UNL     1       3.429  61.631  70.539  0.00  0.00    +0.000 C 
ATOM     10  C4  UNL     1       2.870  61.588  71.824  0.00  0.00    +0.000 C 
ATOM     11  C6  UNL     1       1.844  62.483  72.184  0.00  0.00    +0.000 C 
ATOM     12  C20 UNL     1       1.428  63.347  71.172  0.00  0.00    +0.000 C 
ATOM     13  N2  UNL     1       1.947  63.396  69.921  0.00  0.00    +0.000 NA
BRANCH  10  14
ATOM     14  C5  UNL     1       3.447  60.543  72.702  0.00  0.00    +0.000 C 
ATOM     15  N1  UNL     1       4.288  59.644  72.304  0.00  0.00    +0.000 NA
BRANCH  15  16
ATOM     16  O1  UNL     1       4.640  58.839  73.392  0.00  0.00    +0.000 OA
ATOM     17  H   UNL     1       5.537  58.769  73.653  0.00  0.00    +0.000 HD
ENDBRANCH  15  16
ENDBRANCH  10  14
ENDBRANCH   1  11
BRANCH   6  18
ATOM     18  C13 UNL     1      -0.525  60.762  72.896  0.00  0.00    +0.000 C 
ATOM     19  O2  UNL     1      -1.433  61.477  72.472  0.00  0.00    +0.000 OA
BRANCH  18  20
ATOM     20  C14 UNL     1      -0.293  59.343  72.389  0.00  0.00    +0.000 C 
BRANCH  20  21
ATOM     21  C15 UNL     1       0.254  58.370  73.454  0.00  0.00    +0.000 C 
ATOM     22  C16 UNL     1      -0.886  57.530  74.046  0.00  0.00    +0.000 C 
BRANCH  21  23
ATOM     23  C17 UNL     1       1.411  57.508  72.871  0.00  0.00    +0.000 C 
ATOM     24  C18 UNL     1       1.272  56.030  73.254  0.00  0.00    +0.000 C 
ATOM     25  C19 UNL     1       1.576  57.633  71.355  0.00  0.00    +0.000 C 
ENDBRANCH  21  23
ENDBRANCH  20  21
ENDBRANCH  18  20
ENDBRANCH   6  18
TORSDOF 7
ENDMDL
MODEL 6
REMARK VINA RESULT:    -6.268     19.571     22.319
REMARK INTER + INTRA:         -10.150
REMARK INTER:                  -9.111
REMARK INTRA:                  -1.038
REMARK UNBOUND:                -1.500
REMARK  Name = laboratorio_evolutivo\Gen4_Mutante_2.pdb
REMARK  12 active torsions:
REMARK  status: ('A' for Active; 'I' for Inactive)
REMARK    1  A    between atoms: C1_1  and  C2_2
REMARK    2  A    between atoms: C4_4  and  C5_5
REMARK    3  A    between atoms: N1_6  and  O1_7
REMARK    4  A    between atoms: C6_8  and  C7_9
REMARK    5  A    between atoms: C10_12  and  C11_13
REMARK    6  A    between atoms: C12_14  and  C13_15
REMARK    7  A    between atoms: C13_15  and  C14_17
REMARK    8  A    between atoms: C14_17  and  C15_18
REMARK    9  A    between atoms: C15_18  and  C16_19
REMARK   10  A    between atoms: C15_18  and  C17_20
REMARK   11  A    between atoms: C17_20  and  C18_21
REMARK   12  A    between atoms: C17_20  and  C19_22
REMARK                            x       y       z     vdW  Elec       q    Type
REMARK                         _______ _______ _______ _____ _____    ______ ____
ROOT
ATOM      1  C7  UNL     1      14.843  51.212  58.243  0.00  0.00    +0.000 C 
ATOM      2  C8  UNL     1      13.876  52.320  58.719  0.00  0.00    +0.000 C 
ATOM      3  C9  UNL     1      14.573  53.007  59.900  0.00  0.00    +0.000 C 
ATOM      4  C10 UNL     1      15.866  52.222  60.152  0.00  0.00    +0.000 C 
ATOM      5  C11 UNL     1      16.299  52.212  61.609  0.00  0.00    +0.000 C 
ATOM      6  C12 UNL     1      15.629  50.844  59.515  0.00  0.00    +0.000 C 
ENDROOT
BRANCH   1  11
ATOM      7  C1  UNL     1      12.398  46.819  55.351  0.00  0.00    +0.000 C 
ATOM      8  C2  UNL     1      13.076  47.939  56.082  0.00  0.00    +0.000 C 
ATOM      9  C3  UNL     1      14.418  48.205  55.872  0.00  0.00    +0.000 C 
ATOM     10  C4  UNL     1      15.027  49.255  56.575  0.00  0.00    +0.000 C 
ATOM     11  C6  UNL     1      14.275  50.046  57.465  0.00  0.00    +0.000 C 
ATOM     12  C20 UNL     1      12.938  49.674  57.605  0.00  0.00    +0.000 C 
ATOM     13  N2  UNL     1      12.335  48.657  56.944  0.00  0.00    +0.000 NA
BRANCH  10  14
ATOM     14  C5  UNL     1      16.473  49.415  56.293  0.00  0.00    +0.000 C 
ATOM     15  N1  UNL     1      17.157  48.621  55.535  0.00  0.00    +0.000 NA
BRANCH  15  16
ATOM     16  O1  UNL     1      18.477  49.079  55.473  0.00  0.00    +0.000 OA
ATOM     17  H   UNL     1      19.046  48.970  56.210  0.00  0.00    +0.000 HD
ENDBRANCH  15  16
ENDBRANCH  10  14
ENDBRANCH   1  11
BRANCH   6  18
ATOM     18  C13 UNL     1      14.866  49.866  60.414  0.00  0.00    +0.000 C 
ATOM     19  O2  UNL     1      13.878  50.217  61.060  0.00  0.00    +0.000 OA
BRANCH  18  20
ATOM     20  C14 UNL     1      15.408  48.442  60.454  0.00  0.00    +0.000 C 
BRANCH  20  21
ATOM     21  C15 UNL     1      14.331  47.359  60.666  0.00  0.00    +0.000 C 
ATOM     22  C16 UNL     1      14.383  46.324  59.534  0.00  0.00    +0.000 C 
BRANCH  21  23
ATOM     23  C17 UNL     1      14.456  46.724  62.081  0.00  0.00    +0.000 C 
ATOM     24  C18 UNL     1      14.517  45.193  62.019  0.00  0.00    +0.000 C 
ATOM     25  C19 UNL     1      15.639  47.253  62.896  0.00  0.00    +0.000 C 
ENDBRANCH  21  23
ENDBRANCH  20  21
ENDBRANCH  18  20
ENDBRANCH   6  18
TORSDOF 7
ENDMDL
MODEL 7
REMARK VINA RESULT:    -6.117     20.300     22.927
REMARK INTER + INTRA:          -9.942
REMARK INTER:                  -8.228
REMARK INTRA:                  -1.714
REMARK UNBOUND:                -1.500
REMARK  Name = laboratorio_evolutivo\Gen4_Mutante_2.pdb
REMARK  12 active torsions:
REMARK  status: ('A' for Active; 'I' for Inactive)
REMARK    1  A    between atoms: C1_1  and  C2_2
REMARK    2  A    between atoms: C4_4  and  C5_5
REMARK    3  A    between atoms: N1_6  and  O1_7
REMARK    4  A    between atoms: C6_8  and  C7_9
REMARK    5  A    between atoms: C10_12  and  C11_13
REMARK    6  A    between atoms: C12_14  and  C13_15
REMARK    7  A    between atoms: C13_15  and  C14_17
REMARK    8  A    between atoms: C14_17  and  C15_18
REMARK    9  A    between atoms: C15_18  and  C16_19
REMARK   10  A    between atoms: C15_18  and  C17_20
REMARK   11  A    between atoms: C17_20  and  C18_21
REMARK   12  A    between atoms: C17_20  and  C19_22
REMARK                            x       y       z     vdW  Elec       q    Type
REMARK                         _______ _______ _______ _____ _____    ______ ____
ROOT
ATOM      1  C7  UNL     1      12.035  49.142  55.033  0.00  0.00    +0.000 C 
ATOM      2  C8  UNL     1      10.873  48.471  54.267  0.00  0.00    +0.000 C 
ATOM      3  C9  UNL     1       9.594  49.171  54.747  0.00  0.00    +0.000 C 
ATOM      4  C10 UNL     1      10.025  50.147  55.848  0.00  0.00    +0.000 C 
ATOM      5  C11 UNL     1       8.968  50.364  56.919  0.00  0.00    +0.000 C 
ATOM      6  C12 UNL     1      11.381  49.618  56.344  0.00  0.00    +0.000 C 
ENDROOT
BRANCH   1  11
ATOM      7  C1  UNL     1      16.865  45.972  55.534  0.00  0.00    +0.000 C 
ATOM      8  C2  UNL     1      15.643  46.832  55.423  0.00  0.00    +0.000 C 
ATOM      9  C3  UNL     1      15.728  48.201  55.604  0.00  0.00    +0.000 C 
ATOM     10  C4  UNL     1      14.565  48.979  55.501  0.00  0.00    +0.000 C 
ATOM     11  C6  UNL     1      13.331  48.377  55.190  0.00  0.00    +0.000 C 
ATOM     12  C20 UNL     1      13.366  46.991  55.045  0.00  0.00    +0.000 C 
ATOM     13  N2  UNL     1      14.476  46.221  55.152  0.00  0.00    +0.000 NA
BRANCH  10  14
ATOM     14  C5  UNL     1      14.779  50.424  55.753  0.00  0.00    +0.000 C 
ATOM     15  N1  UNL     1      15.753  50.902  56.458  0.00  0.00    +0.000 NA
BRANCH  15  16
ATOM     16  O1  UNL     1      15.662  52.298  56.470  0.00  0.00    +0.000 OA
ATOM     17  H   UNL     1      16.332  52.814  56.067  0.00  0.00    +0.000 HD
ENDBRANCH  15  16
ENDBRANCH  10  14
ENDBRANCH   1  11
BRANCH   6  18
ATOM     18  C13 UNL     1      11.269  48.500  57.384  0.00  0.00    +0.000 C 
ATOM     19  O2  UNL     1      10.767  47.409  57.112  0.00  0.00    +0.000 OA
BRANCH  18  20
ATOM     20  C14 UNL     1      11.817  48.826  58.769  0.00  0.00    +0.000 C 
BRANCH  20  21
ATOM     21  C15 UNL     1      13.209  49.490  58.760  0.00  0.00    +0.000 C 
ATOM     22  C16 UNL     1      13.122  50.925  59.297  0.00  0.00    +0.000 C 
BRANCH  21  23
ATOM     23  C17 UNL     1      14.244  48.613  59.523  0.00  0.00    +0.000 C 
ATOM     24  C18 UNL     1      14.384  47.220  58.899  0.00  0.00    +0.000 C 
ATOM     25  C19 UNL     1      15.626  49.258  59.656  0.00  0.00    +0.000 C 
ENDBRANCH  21  23
ENDBRANCH  20  21
ENDBRANCH  18  20
ENDBRANCH   6  18
TORSDOF 7
ENDMDL
MODEL 8
REMARK VINA RESULT:    -6.111     20.517     22.944
REMARK INTER + INTRA:          -9.934
REMARK INTER:                  -9.139
REMARK INTRA:                  -0.794
REMARK UNBOUND:                -1.500
REMARK  Name = laboratorio_evolutivo\Gen4_Mutante_2.pdb
REMARK  12 active torsions:
REMARK  status: ('A' for Active; 'I' for Inactive)
REMARK    1  A    between atoms: C1_1  and  C2_2
REMARK    2  A    between atoms: C4_4  and  C5_5
REMARK    3  A    between atoms: N1_6  and  O1_7
REMARK    4  A    between atoms: C6_8  and  C7_9
REMARK    5  A    between atoms: C10_12  and  C11_13
REMARK    6  A    between atoms: C12_14  and  C13_15
REMARK    7  A    between atoms: C13_15  and  C14_17
REMARK    8  A    between atoms: C14_17  and  C15_18
REMARK    9  A    between atoms: C15_18  and  C16_19
REMARK   10  A    between atoms: C15_18  and  C17_20
REMARK   11  A    between atoms: C17_20  and  C18_21
REMARK   12  A    between atoms: C17_20  and  C19_22
REMARK                            x       y       z     vdW  Elec       q    Type
REMARK                         _______ _______ _______ _____ _____    ______ ____
ROOT
ATOM      1  C7  UNL     1       5.917  81.454  66.748  0.00  0.00    +0.000 C 
ATOM      2  C8  UNL     1       5.903  79.947  67.090  0.00  0.00    +0.000 C 
ATOM      3  C9  UNL     1       7.322  79.437  66.802  0.00  0.00    +0.000 C 
ATOM      4  C10 UNL     1       8.090  80.621  66.202  0.00  0.00    +0.000 C 
ATOM      5  C11 UNL     1       9.162  80.210  65.206  0.00  0.00    +0.000 C 
ATOM      6  C12 UNL     1       7.007  81.571  65.666  0.00  0.00    +0.000 C 
ENDROOT
BRANCH   1  11
ATOM      7  C1  UNL     1       0.747  83.791  65.546  0.00  0.00    +0.000 C 
ATOM      8  C2  UNL     1       2.105  83.234  65.851  0.00  0.00    +0.000 C 
ATOM      9  C3  UNL     1       3.183  84.078  66.053  0.00  0.00    +0.000 C 
ATOM     10  C4  UNL     1       4.443  83.526  66.329  0.00  0.00    +0.000 C 
ATOM     11  C6  UNL     1       4.603  82.131  66.427  0.00  0.00    +0.000 C 
ATOM     12  C20 UNL     1       3.450  81.383  66.190  0.00  0.00    +0.000 C 
ATOM     13  N2  UNL     1       2.228  81.896  65.911  0.00  0.00    +0.000 NA
BRANCH  10  14
ATOM     14  C5  UNL     1       5.522  84.530  66.487  0.00  0.00    +0.000 C 
ATOM     15  N1  UNL     1       5.533  85.682  65.899  0.00  0.00    +0.000 NA
BRANCH  15  16
ATOM     16  O1  UNL     1       6.683  86.378  66.288  0.00  0.00    +0.000 OA
ATOM     17  H   UNL     1       6.725  87.309  66.183  0.00  0.00    +0.000 HD
ENDBRANCH  15  16
ENDBRANCH  10  14
ENDBRANCH   1  11
BRANCH   6  18
ATOM     18  C13 UNL     1       6.493  81.204  64.271  0.00  0.00    +0.000 C 
ATOM     19  O2  UNL     1       6.230  80.041  63.964  0.00  0.00    +0.000 OA
BRANCH  18  20
ATOM     20  C14 UNL     1       6.331  82.365  63.298  0.00  0.00    +0.000 C 
BRANCH  20  21
ATOM     21  C15 UNL     1       5.328  82.102  62.156  0.00  0.00    +0.000 C 
ATOM     22  C16 UNL     1       5.802  80.929  61.287  0.00  0.00    +0.000 C 
BRANCH  21  23
ATOM     23  C17 UNL     1       3.890  81.905  62.719  0.00  0.00    +0.000 C 
ATOM     24  C18 UNL     1       2.921  82.975  62.202  0.00  0.00    +0.000 C 
ATOM     25  C19 UNL     1       3.306  80.514  62.457  0.00  0.00    +0.000 C 
ENDBRANCH  21  23
ENDBRANCH  20  21
ENDBRANCH  18  20
ENDBRANCH   6  18
TORSDOF 7
ENDMDL
MODEL 9
REMARK VINA RESULT:    -5.914     19.789     22.575
REMARK INTER + INTRA:          -9.661
REMARK INTER:                  -7.940
REMARK INTRA:                  -1.721
REMARK UNBOUND:                -1.500
REMARK  Name = laboratorio_evolutivo\Gen4_Mutante_2.pdb
REMARK  12 active torsions:
REMARK  status: ('A' for Active; 'I' for Inactive)
REMARK    1  A    between atoms: C1_1  and  C2_2
REMARK    2  A    between atoms: C4_4  and  C5_5
REMARK    3  A    between atoms: N1_6  and  O1_7
REMARK    4  A    between atoms: C6_8  and  C7_9
REMARK    5  A    between atoms: C10_12  and  C11_13
REMARK    6  A    between atoms: C12_14  and  C13_15
REMARK    7  A    between atoms: C13_15  and  C14_17
REMARK    8  A    between atoms: C14_17  and  C15_18
REMARK    9  A    between atoms: C15_18  and  C16_19
REMARK   10  A    between atoms: C15_18  and  C17_20
REMARK   11  A    between atoms: C17_20  and  C18_21
REMARK   12  A    between atoms: C17_20  and  C19_22
REMARK                            x       y       z     vdW  Elec       q    Type
REMARK                         _______ _______ _______ _____ _____    ______ ____
ROOT
ATOM      1  C7  UNL     1      13.232  50.285  58.935  0.00  0.00    +0.000 C 
ATOM      2  C8  UNL     1      12.798  50.590  60.387  0.00  0.00    +0.000 C 
ATOM      3  C9  UNL     1      13.784  51.644  60.908  0.00  0.00    +0.000 C 
ATOM      4  C10 UNL     1      14.823  51.846  59.798  0.00  0.00    +0.000 C 
ATOM      5  C11 UNL     1      16.205  52.212  60.316  0.00  0.00    +0.000 C 
ATOM      6  C12 UNL     1      14.745  50.574  58.939  0.00  0.00    +0.000 C 
ENDROOT
BRANCH   1  11
ATOM      7  C1  UNL     1      11.572  45.133  56.853  0.00  0.00    +0.000 C 
ATOM      8  C2  UNL     1      12.015  46.478  57.344  0.00  0.00    +0.000 C 
ATOM      9  C3  UNL     1      12.361  47.475  56.447  0.00  0.00    +0.000 C 
ATOM     10  C4  UNL     1      12.779  48.721  56.937  0.00  0.00    +0.000 C 
ATOM     11  C6  UNL     1      12.821  48.965  58.323  0.00  0.00    +0.000 C 
ATOM     12  C20 UNL     1      12.464  47.882  59.127  0.00  0.00    +0.000 C 
ATOM     13  N2  UNL     1      12.069  46.668  58.674  0.00  0.00    +0.000 NA
BRANCH  10  14
ATOM     14  C5  UNL     1      13.158  49.690  55.881  0.00  0.00    +0.000 C 
ATOM     15  N1  UNL     1      13.281  49.388  54.629  0.00  0.00    +0.000 NA
BRANCH  15  16
ATOM     16  O1  UNL     1      13.626  50.541  53.916  0.00  0.00    +0.000 OA
ATOM     17  H   UNL     1      13.953  50.471  53.040  0.00  0.00    +0.000 HD
ENDBRANCH  15  16
ENDBRANCH  10  14
ENDBRANCH   1  11
BRANCH   6  18
ATOM     18  C13 UNL     1      15.565  49.403  59.487  0.00  0.00    +0.000 C 
ATOM     19  O2  UNL     1      15.322  48.899  60.584  0.00  0.00    +0.000 OA
BRANCH  18  20
ATOM     20  C14 UNL     1      16.693  48.907  58.590  0.00  0.00    +0.000 C 
BRANCH  20  21
ATOM     21  C15 UNL     1      16.310  48.779  57.101  0.00  0.00    +0.000 C 
ATOM     22  C16 UNL     1      17.088  49.800  56.259  0.00  0.00    +0.000 C 
BRANCH  21  23
ATOM     23  C17 UNL     1      16.492  47.314  56.608  0.00  0.00    +0.000 C 
ATOM     24  C18 UNL     1      15.721  46.316  57.481  0.00  0.00    +0.000 C 
ATOM     25  C19 UNL     1      16.122  47.103  55.138  0.00  0.00    +0.000 C 
ENDBRANCH  21  23
ENDBRANCH  20  21
ENDBRANCH  18  20
ENDBRANCH   6  18
TORSDOF 7
ENDMDL
