REMARK  Name = laboratorio_evolutivo\Gen4_Mutante_6.pdb
REMARK  11 active torsions:
REMARK  status: ('A' for Active; 'I' for Inactive)
REMARK    1  A    between atoms: C1_1  and  C2_2
REMARK    2  A    between atoms: C2_2  and  C3_3
REMARK    3  A    between atoms: C3_3  and  C4_4
REMARK    4  A    between atoms: C3_3  and  C5_5
REMARK    5  A    between atoms: C5_5  and  C6_6
REMARK    6  A    between atoms: C6_6  and  C7_8
REMARK    7  A    between atoms: C8_9  and  C9_10
REMARK    8  A    between atoms: C12_13  and  C13_14
REMARK    9  A    between atoms: C15_17  and  C16_18
REMARK   10  A    between atoms: C18_20  and  C19_21
REMARK   11  A    between atoms: C19_21  and  C20_22
REMARK                            x       y       z     vdW  Elec       q    Type
REMARK                         _______ _______ _______ _____ _____    ______ ____
ROOT
ATOM      1  C7  UNL     1       0.133  -0.873   0.437  0.00  0.00    +0.000 C 
ATOM      2  C8  UNL     1       0.467  -2.385   0.381  0.00  0.00    +0.000 C 
ATOM      3  C9  UNL     1       0.098  -3.095   1.683  0.00  0.00    +0.000 C 
ATOM      4  C10 UNL     1      -0.329  -2.939  -0.809  0.00  0.00    +0.000 C 
ATOM      5  C11 UNL     1      -1.504  -1.985  -0.975  0.00  0.00    +0.000 C 
ATOM      6  C12 UNL     1      -0.868  -0.617  -0.710  0.00  0.00    +0.000 C 
ENDROOT
BRANCH   6   7
ATOM      7  C13 UNL     1      -1.793   0.565  -0.514  0.00  0.00    +0.000 C 
ATOM      8  C14 UNL     1      -1.492   1.738  -1.209  0.00  0.00    +0.000 C 
ATOM      9  N1  UNL     1      -2.214   2.882  -1.172  0.00  0.00    +0.000 NA
ATOM     10  C15 UNL     1      -3.302   2.910  -0.379  0.00  0.00    +0.000 C 
ATOM     11  C16 UNL     1      -4.080   4.189  -0.317  0.00  0.00    +0.000 C 
ATOM     12  C17 UNL     1      -3.695   1.811   0.366  0.00  0.00    +0.000 C 
ATOM     13  C18 UNL     1      -2.938   0.632   0.292  0.00  0.00    +0.000 C 
BRANCH  13  14
ATOM     14  C19 UNL     1      -3.412  -0.492   1.132  0.00  0.00    +0.000 C 
ATOM     15  C20 UNL     1      -4.842  -0.937   0.963  0.00  0.00    +0.000 C 
ATOM     16  O2  UNL     1      -2.662  -1.013   1.949  0.00  0.00    +0.000 OA
ENDBRANCH  13  14
ENDBRANCH   6   7
BRANCH   1  17
ATOM     17  C6  UNL     1       1.394  -0.012   0.337  0.00  0.00    +0.000 C 
ATOM     18  O1  UNL     1       1.711   0.720   1.277  0.00  0.00    +0.000 OA
BRANCH  17  19
ATOM     19  C5  UNL     1       2.210  -0.051  -0.953  0.00  0.00    +0.000 C 
BRANCH  19  20
ATOM     20  C3  UNL     1       3.728   0.169  -0.805  0.00  0.00    +0.000 C 
ATOM     21  C4  UNL     1       4.350  -0.838   0.166  0.00  0.00    +0.000 C 
BRANCH  20  23
ATOM     22  C1  UNL     1       5.558   1.944  -0.603  0.00  0.00    +0.000 C 
ATOM     23  C2  UNL     1       4.075   1.628  -0.452  0.00  0.00    +0.000 C 
ENDBRANCH  20  23
ENDBRANCH  19  20
ENDBRANCH  17  19
ENDBRANCH   1  17
TORSDOF 6
