MODEL 1
REMARK VINA RESULT:    -6.366      0.000      0.000
REMARK INTER + INTRA:         -10.829
REMARK INTER:                  -8.785
REMARK INTRA:                  -2.044
REMARK UNBOUND:                -2.044
REMARK  Name = laboratorio_evolutivo\Gen4_Mutante_5.pdb
REMARK  12 active torsions:
REMARK  status: ('A' for Active; 'I' for Inactive)
REMARK    1  A    between atoms: C1_1  and  C2_2
REMARK    2  A    between atoms: C2_2  and  C3_3
REMARK    3  A    between atoms: C3_3  and  C4_4
REMARK    4  A    between atoms: C3_3  and  C5_5
REMARK    5  A    between atoms: C5_5  and  C6_6
REMARK    6  A    between atoms: C5_5  and  C7_7
REMARK    7  A    between atoms: C7_7  and  C8_9
REMARK    8  A    between atoms: C9_10  and  C10_11
REMARK    9  A    between atoms: C13_14  and  C14_15
REMARK   10  A    between atoms: C16_18  and  C17_19
REMARK   11  A    between atoms: C19_21  and  C20_22
REMARK   12  A    between atoms: N2_23  and  O2_24
REMARK                            x       y       z     vdW  Elec       q    Type
REMARK                         _______ _______ _______ _____ _____    ______ ____
ROOT
ATOM      1  C8  UNL     1       2.237   0.679  20.402  0.00  0.00    +0.000 C 
ATOM      2  C9  UNL     1       3.140   0.825  21.642  0.00  0.00    +0.000 C 
ATOM      3  C10 UNL     1       4.049   2.043  21.684  0.00  0.00    +0.000 C 
ATOM      4  C11 UNL     1       2.172   0.751  22.818  0.00  0.00    +0.000 C 
ATOM      5  C12 UNL     1       1.219  -0.364  22.398  0.00  0.00    +0.000 C 
ATOM      6  C13 UNL     1       1.027  -0.178  20.878  0.00  0.00    +0.000 C 
ENDROOT
BRANCH   6   7
ATOM      7  C14 UNL     1       0.833  -1.514  20.186  0.00  0.00    +0.000 C 
ATOM      8  C15 UNL     1       1.883  -2.416  20.034  0.00  0.00    +0.000 C 
ATOM      9  N1  UNL     1       1.791  -3.623  19.430  0.00  0.00    +0.000 NA
ATOM     10  C16 UNL     1       0.580  -4.005  18.968  0.00  0.00    +0.000 C 
ATOM     11  C17 UNL     1       0.481  -5.344  18.300  0.00  0.00    +0.000 C 
ATOM     12  C18 UNL     1      -0.548  -3.211  19.110  0.00  0.00    +0.000 C 
ATOM     13  C19 UNL     1      -0.418  -1.966  19.734  0.00  0.00    +0.000 C 
BRANCH  13  14
ATOM     14  C20 UNL     1      -1.629  -1.124  19.844  0.00  0.00    +0.000 C 
ATOM     15  N2  UNL     1      -2.512  -1.117  20.799  0.00  0.00    +0.000 NA
BRANCH  15  16
ATOM     16  O2  UNL     1      -2.172  -1.978  21.848  0.00  0.00    +0.000 OA
ATOM     17  H   UNL     1      -2.843  -2.343  22.391  0.00  0.00    +0.000 HD
ENDBRANCH  15  16
ENDBRANCH  13  14
ENDBRANCH   6   7
BRANCH   1  18
ATOM     18  C7  UNL     1       1.712   2.005  19.838  0.00  0.00    +0.000 C 
ATOM     19  O1  UNL     1       0.902   2.686  20.465  0.00  0.00    +0.000 OA
BRANCH  18  20
ATOM     20  C5  UNL     1       2.241   2.419  18.459  0.00  0.00    +0.000 C 
ATOM     21  C6  UNL     1       1.970   3.912  18.257  0.00  0.00    +0.000 C 
BRANCH  20  22
ATOM     22  C3  UNL     1       1.725   1.553  17.276  0.00  0.00    +0.000 C 
ATOM     23  C4  UNL     1       0.216   1.272  17.316  0.00  0.00    +0.000 C 
BRANCH  22  25
ATOM     24  C1  UNL     1       1.632  -0.923  16.596  0.00  0.00    +0.000 C 
ATOM     25  C2  UNL     1       2.498   0.228  17.094  0.00  0.00    +0.000 C 
ENDBRANCH  22  25
ENDBRANCH  20  22
ENDBRANCH  18  20
ENDBRANCH   1  18
TORSDOF 7
ENDMDL
MODEL 2
REMARK VINA RESULT:    -6.163      2.515      5.494
REMARK INTER + INTRA:         -10.550
REMARK INTER:                  -8.544
REMARK INTRA:                  -2.006
REMARK UNBOUND:                -2.044
REMARK  Name = laboratorio_evolutivo\Gen4_Mutante_5.pdb
REMARK  12 active torsions:
REMARK  status: ('A' for Active; 'I' for Inactive)
REMARK    1  A    between atoms: C1_1  and  C2_2
REMARK    2  A    between atoms: C2_2  and  C3_3
REMARK    3  A    between atoms: C3_3  and  C4_4
REMARK    4  A    between atoms: C3_3  and  C5_5
REMARK    5  A    between atoms: C5_5  and  C6_6
REMARK    6  A    between atoms: C5_5  and  C7_7
REMARK    7  A    between atoms: C7_7  and  C8_9
REMARK    8  A    between atoms: C9_10  and  C10_11
REMARK    9  A    between atoms: C13_14  and  C14_15
REMARK   10  A    between atoms: C16_18  and  C17_19
REMARK   11  A    between atoms: C19_21  and  C20_22
REMARK   12  A    between atoms: N2_23  and  O2_24
REMARK                            x       y       z     vdW  Elec       q    Type
REMARK                         _______ _______ _______ _____ _____    ______ ____
ROOT
ATOM      1  C8  UNL     1       0.533  -0.546  20.570  0.00  0.00    +0.000 C 
ATOM      2  C9  UNL     1      -0.051  -1.722  21.376  0.00  0.00    +0.000 C 
ATOM      3  C10 UNL     1      -1.300  -2.382  20.813  0.00  0.00    +0.000 C 
ATOM      4  C11 UNL     1       1.121  -2.683  21.537  0.00  0.00    +0.000 C 
ATOM      5  C12 UNL     1       2.286  -1.745  21.836  0.00  0.00    +0.000 C 
ATOM      6  C13 UNL     1       2.045  -0.508  20.946  0.00  0.00    +0.000 C 
ENDROOT
BRANCH   6   7
ATOM      7  C14 UNL     1       2.539   0.757  21.624  0.00  0.00    +0.000 C 
ATOM      8  C15 UNL     1       2.608   0.860  23.011  0.00  0.00    +0.000 C 
ATOM      9  N1  UNL     1       3.036   1.951  23.689  0.00  0.00    +0.000 NA
ATOM     10  C16 UNL     1       3.464   3.011  22.969  0.00  0.00    +0.000 C 
ATOM     11  C17 UNL     1       3.938   4.218  23.724  0.00  0.00    +0.000 C 
ATOM     12  C18 UNL     1       3.489   3.001  21.584  0.00  0.00    +0.000 C 
ATOM     13  C19 UNL     1       3.035   1.861  20.913  0.00  0.00    +0.000 C 
BRANCH  13  14
ATOM     14  C20 UNL     1       3.042   1.887  19.434  0.00  0.00    +0.000 C 
ATOM     15  N2  UNL     1       2.126   2.357  18.639  0.00  0.00    +0.000 NA
BRANCH  15  16
ATOM     16  O2  UNL     1       1.074   2.961  19.334  0.00  0.00    +0.000 OA
ATOM     17  H   UNL     1       0.623   2.489  20.007  0.00  0.00    +0.000 HD
ENDBRANCH  15  16
ENDBRANCH  13  14
ENDBRANCH   6   7
BRANCH   1  18
ATOM     18  C7  UNL     1       0.406  -0.693  19.049  0.00  0.00    +0.000 C 
ATOM     19  O1  UNL     1      -0.577  -0.260  18.449  0.00  0.00    +0.000 OA
BRANCH  18  20
ATOM     20  C5  UNL     1       1.556  -1.412  18.332  0.00  0.00    +0.000 C 
ATOM     21  C6  UNL     1       1.810  -0.717  16.992  0.00  0.00    +0.000 C 
BRANCH  20  22
ATOM     22  C3  UNL     1       1.371  -2.948  18.183  0.00  0.00    +0.000 C 
ATOM     23  C4  UNL     1       2.687  -3.737  18.132  0.00  0.00    +0.000 C 
BRANCH  22  25
ATOM     24  C1  UNL     1      -0.912  -3.832  17.403  0.00  0.00    +0.000 C 
ATOM     25  C2  UNL     1       0.474  -3.351  16.991  0.00  0.00    +0.000 C 
ENDBRANCH  22  25
ENDBRANCH  20  22
ENDBRANCH  18  20
ENDBRANCH   1  18
TORSDOF 7
ENDMDL
MODEL 3
REMARK VINA RESULT:    -6.111     23.527     26.043
REMARK INTER + INTRA:         -10.478
REMARK INTER:                  -8.480
REMARK INTRA:                  -1.998
REMARK UNBOUND:                -2.044
REMARK  Name = laboratorio_evolutivo\Gen4_Mutante_5.pdb
REMARK  12 active torsions:
REMARK  status: ('A' for Active; 'I' for Inactive)
REMARK    1  A    between atoms: C1_1  and  C2_2
REMARK    2  A    between atoms: C2_2  and  C3_3
REMARK    3  A    between atoms: C3_3  and  C4_4
REMARK    4  A    between atoms: C3_3  and  C5_5
REMARK    5  A    between atoms: C5_5  and  C6_6
REMARK    6  A    between atoms: C5_5  and  C7_7
REMARK    7  A    between atoms: C7_7  and  C8_9
REMARK    8  A    between atoms: C9_10  and  C10_11
REMARK    9  A    between atoms: C13_14  and  C14_15
REMARK   10  A    between atoms: C16_18  and  C17_19
REMARK   11  A    between atoms: C19_21  and  C20_22
REMARK   12  A    between atoms: N2_23  and  O2_24
REMARK                            x       y       z     vdW  Elec       q    Type
REMARK                         _______ _______ _______ _____ _____    ______ ____
ROOT
ATOM      1  C8  UNL     1      18.550  -7.529   2.677  0.00  0.00    +0.000 C 
ATOM      2  C9  UNL     1      19.929  -7.349   3.339  0.00  0.00    +0.000 C 
ATOM      3  C10 UNL     1      20.295  -8.338   4.434  0.00  0.00    +0.000 C 
ATOM      4  C11 UNL     1      20.908  -7.350   2.170  0.00  0.00    +0.000 C 
ATOM      5  C12 UNL     1      20.182  -6.511   1.124  0.00  0.00    +0.000 C 
ATOM      6  C13 UNL     1      18.694  -6.896   1.260  0.00  0.00    +0.000 C 
ENDROOT
BRANCH   6   7
ATOM      7  C14 UNL     1      17.794  -5.713   0.956  0.00  0.00    +0.000 C 
ATOM      8  C15 UNL     1      17.597  -4.690   1.881  0.00  0.00    +0.000 C 
ATOM      9  N1  UNL     1      16.813  -3.605   1.685  0.00  0.00    +0.000 NA
ATOM     10  C16 UNL     1      16.198  -3.480   0.489  0.00  0.00    +0.000 C 
ATOM     11  C17 UNL     1      15.330  -2.276   0.275  0.00  0.00    +0.000 C 
ATOM     12  C18 UNL     1      16.363  -4.410  -0.526  0.00  0.00    +0.000 C 
ATOM     13  C19 UNL     1      17.175  -5.523  -0.290  0.00  0.00    +0.000 C 
BRANCH  13  14
ATOM     14  C20 UNL     1      17.310  -6.517  -1.378  0.00  0.00    +0.000 C 
ATOM     15  N2  UNL     1      18.205  -6.554  -2.320  0.00  0.00    +0.000 NA
BRANCH  15  16
ATOM     16  O2  UNL     1      19.167  -5.548  -2.183  0.00  0.00    +0.000 OA
ATOM     17  H   UNL     1      20.010  -5.648  -2.581  0.00  0.00    +0.000 HD
ENDBRANCH  15  16
ENDBRANCH  13  14
ENDBRANCH   6   7
BRANCH   1  18
ATOM     18  C7  UNL     1      18.104  -8.988   2.523  0.00  0.00    +0.000 C 
ATOM     19  O1  UNL     1      18.678  -9.749   1.745  0.00  0.00    +0.000 OA
BRANCH  18  20
ATOM     20  C5  UNL     1      16.909  -9.432   3.376  0.00  0.00    +0.000 C 
ATOM     21  C6  UNL     1      16.853 -10.961   3.384  0.00  0.00    +0.000 C 
BRANCH  20  22
ATOM     22  C3  UNL     1      15.551  -8.786   2.980  0.00  0.00    +0.000 C 
ATOM     23  C4  UNL     1      15.316  -8.697   1.466  0.00  0.00    +0.000 C 
BRANCH  22  25
ATOM     24  C1  UNL     1      14.522  -6.444   2.745  0.00  0.00    +0.000 C 
ATOM     25  C2  UNL     1      15.310  -7.404   3.628  0.00  0.00    +0.000 C 
ENDBRANCH  22  25
ENDBRANCH  20  22
ENDBRANCH  18  20
ENDBRANCH   1  18
TORSDOF 7
ENDMDL
MODEL 4
REMARK VINA RESULT:    -6.087     24.792     26.912
REMARK INTER + INTRA:         -10.444
REMARK INTER:                  -8.885
REMARK INTRA:                  -1.559
REMARK UNBOUND:                -2.044
REMARK  Name = laboratorio_evolutivo\Gen4_Mutante_5.pdb
REMARK  12 active torsions:
REMARK  status: ('A' for Active; 'I' for Inactive)
REMARK    1  A    between atoms: C1_1  and  C2_2
REMARK    2  A    between atoms: C2_2  and  C3_3
REMARK    3  A    between atoms: C3_3  and  C4_4
REMARK    4  A    between atoms: C3_3  and  C5_5
REMARK    5  A    between atoms: C5_5  and  C6_6
REMARK    6  A    between atoms: C5_5  and  C7_7
REMARK    7  A    between atoms: C7_7  and  C8_9
REMARK    8  A    between atoms: C9_10  and  C10_11
REMARK    9  A    between atoms: C13_14  and  C14_15
REMARK   10  A    between atoms: C16_18  and  C17_19
REMARK   11  A    between atoms: C19_21  and  C20_22
REMARK   12  A    between atoms: N2_23  and  O2_24
REMARK                            x       y       z     vdW  Elec       q    Type
REMARK                         _______ _______ _______ _____ _____    ______ ____
ROOT
ATOM      1  C8  UNL     1      18.558  -9.050   1.932  0.00  0.00    +0.000 C 
ATOM      2  C9  UNL     1      18.066 -10.476   1.618  0.00  0.00    +0.000 C 
ATOM      3  C10 UNL     1      18.616 -11.595   2.489  0.00  0.00    +0.000 C 
ATOM      4  C11 UNL     1      16.546 -10.364   1.664  0.00  0.00    +0.000 C 
ATOM      5  C12 UNL     1      16.285  -9.037   0.959  0.00  0.00    +0.000 C 
ATOM      6  C13 UNL     1      17.430  -8.107   1.415  0.00  0.00    +0.000 C 
ENDROOT
BRANCH   6   7
ATOM      7  C14 UNL     1      17.815  -7.136   0.315  0.00  0.00    +0.000 C 
ATOM      8  C15 UNL     1      18.130  -7.577  -0.968  0.00  0.00    +0.000 C 
ATOM      9  N1  UNL     1      18.482  -6.775  -2.001  0.00  0.00    +0.000 NA
ATOM     10  C16 UNL     1      18.497  -5.441  -1.786  0.00  0.00    +0.000 C 
ATOM     11  C17 UNL     1      18.886  -4.557  -2.932  0.00  0.00    +0.000 C 
ATOM     12  C18 UNL     1      18.150  -4.887  -0.564  0.00  0.00    +0.000 C 
ATOM     13  C19 UNL     1      17.797  -5.742   0.485  0.00  0.00    +0.000 C 
BRANCH  13  14
ATOM     14  C20 UNL     1      17.463  -5.128   1.789  0.00  0.00    +0.000 C 
ATOM     15  N2  UNL     1      16.293  -4.760   2.222  0.00  0.00    +0.000 NA
BRANCH  15  16
ATOM     16  O2  UNL     1      15.266  -5.083   1.328  0.00  0.00    +0.000 OA
ATOM     17  H   UNL     1      14.383  -5.149   1.634  0.00  0.00    +0.000 HD
ENDBRANCH  15  16
ENDBRANCH  13  14
ENDBRANCH   6   7
BRANCH   1  18
ATOM     18  C7  UNL     1      18.790  -8.771   3.423  0.00  0.00    +0.000 C 
ATOM     19  O1  UNL     1      17.901  -8.960   4.250  0.00  0.00    +0.000 OA
BRANCH  18  20
ATOM     20  C5  UNL     1      20.176  -8.237   3.810  0.00  0.00    +0.000 C 
ATOM     21  C6  UNL     1      20.381  -6.876   3.142  0.00  0.00    +0.000 C 
BRANCH  20  22
ATOM     22  C3  UNL     1      21.350  -9.219   3.541  0.00  0.00    +0.000 C 
ATOM     23  C4  UNL     1      21.418 -10.400   4.518  0.00  0.00    +0.000 C 
BRANCH  22  25
ATOM     24  C1  UNL     1      23.740  -9.273   2.598  0.00  0.00    +0.000 C 
ATOM     25  C2  UNL     1      22.730  -8.527   3.462  0.00  0.00    +0.000 C 
ENDBRANCH  22  25
ENDBRANCH  20  22
ENDBRANCH  18  20
ENDBRANCH   1  18
TORSDOF 7
ENDMDL
MODEL 5
REMARK VINA RESULT:    -5.994      2.146      4.192
REMARK INTER + INTRA:         -10.316
REMARK INTER:                  -8.787
REMARK INTRA:                  -1.529
REMARK UNBOUND:                -2.044
REMARK  Name = laboratorio_evolutivo\Gen4_Mutante_5.pdb
REMARK  12 active torsions:
REMARK  status: ('A' for Active; 'I' for Inactive)
REMARK    1  A    between atoms: C1_1  and  C2_2
REMARK    2  A    between atoms: C2_2  and  C3_3
REMARK    3  A    between atoms: C3_3  and  C4_4
REMARK    4  A    between atoms: C3_3  and  C5_5
REMARK    5  A    between atoms: C5_5  and  C6_6
REMARK    6  A    between atoms: C5_5  and  C7_7
REMARK    7  A    between atoms: C7_7  and  C8_9
REMARK    8  A    between atoms: C9_10  and  C10_11
REMARK    9  A    between atoms: C13_14  and  C14_15
REMARK   10  A    between atoms: C16_18  and  C17_19
REMARK   11  A    between atoms: C19_21  and  C20_22
REMARK   12  A    between atoms: N2_23  and  O2_24
REMARK                            x       y       z     vdW  Elec       q    Type
REMARK                         _______ _______ _______ _____ _____    ______ ____
ROOT
ATOM      1  C8  UNL     1       1.528  -1.402  20.086  0.00  0.00    +0.000 C 
ATOM      2  C9  UNL     1       1.775  -2.613  21.006  0.00  0.00    +0.000 C 
ATOM      3  C10 UNL     1       2.322  -2.315  22.394  0.00  0.00    +0.000 C 
ATOM      4  C11 UNL     1       0.437  -3.343  21.027  0.00  0.00    +0.000 C 
ATOM      5  C12 UNL     1      -0.010  -3.267  19.571  0.00  0.00    +0.000 C 
ATOM      6  C13 UNL     1       0.424  -1.867  19.089  0.00  0.00    +0.000 C 
ENDROOT
BRANCH   6   7
ATOM      7  C14 UNL     1       0.808  -1.890  17.622  0.00  0.00    +0.000 C 
ATOM      8  C15 UNL     1       1.904  -2.618  17.166  0.00  0.00    +0.000 C 
ATOM      9  N1  UNL     1       2.310  -2.688  15.877  0.00  0.00    +0.000 NA
ATOM     10  C16 UNL     1       1.577  -2.032  14.950  0.00  0.00    +0.000 C 
ATOM     11  C17 UNL     1       2.029  -2.113  13.522  0.00  0.00    +0.000 C 
ATOM     12  C18 UNL     1       0.436  -1.319  15.281  0.00  0.00    +0.000 C 
ATOM     13  C19 UNL     1       0.047  -1.260  16.623  0.00  0.00    +0.000 C 
BRANCH  13  14
ATOM     14  C20 UNL     1      -1.156  -0.466  16.955  0.00  0.00    +0.000 C 
ATOM     15  N2  UNL     1      -2.387  -0.877  17.035  0.00  0.00    +0.000 NA
BRANCH  15  16
ATOM     16  O2  UNL     1      -2.503  -2.258  16.848  0.00  0.00    +0.000 OA
ATOM     17  H   UNL     1      -1.755  -2.811  16.962  0.00  0.00    +0.000 HD
ENDBRANCH  15  16
ENDBRANCH  13  14
ENDBRANCH   6   7
BRANCH   1  18
ATOM     18  C7  UNL     1       1.041  -0.141  20.810  0.00  0.00    +0.000 C 
ATOM     19  O1  UNL     1       0.002  -0.148  21.469  0.00  0.00    +0.000 OA
BRANCH  18  20
ATOM     20  C5  UNL     1       1.908   1.115  20.656  0.00  0.00    +0.000 C 
ATOM     21  C6  UNL     1       2.269   1.283  19.178  0.00  0.00    +0.000 C 
BRANCH  20  22
ATOM     22  C3  UNL     1       3.154   1.164  21.584  0.00  0.00    +0.000 C 
ATOM     23  C4  UNL     1       2.820   1.296  23.076  0.00  0.00    +0.000 C 
BRANCH  22  25
ATOM     24  C1  UNL     1       4.066   3.532  21.987  0.00  0.00    +0.000 C 
ATOM     25  C2  UNL     1       4.185   2.243  21.182  0.00  0.00    +0.000 C 
ENDBRANCH  22  25
ENDBRANCH  20  22
ENDBRANCH  18  20
ENDBRANCH   1  18
TORSDOF 7
ENDMDL
MODEL 6
REMARK VINA RESULT:    -5.934      1.972      2.557
REMARK INTER + INTRA:         -10.234
REMARK INTER:                  -8.151
REMARK INTRA:                  -2.082
REMARK UNBOUND:                -2.044
REMARK  Name = laboratorio_evolutivo\Gen4_Mutante_5.pdb
REMARK  12 active torsions:
REMARK  status: ('A' for Active; 'I' for Inactive)
REMARK    1  A    between atoms: C1_1  and  C2_2
REMARK    2  A    between atoms: C2_2  and  C3_3
REMARK    3  A    between atoms: C3_3  and  C4_4
REMARK    4  A    between atoms: C3_3  and  C5_5
REMARK    5  A    between atoms: C5_5  and  C6_6
REMARK    6  A    between atoms: C5_5  and  C7_7
REMARK    7  A    between atoms: C7_7  and  C8_9
REMARK    8  A    between atoms: C9_10  and  C10_11
REMARK    9  A    between atoms: C13_14  and  C14_15
REMARK   10  A    between atoms: C16_18  and  C17_19
REMARK   11  A    between atoms: C19_21  and  C20_22
REMARK   12  A    between atoms: N2_23  and  O2_24
REMARK                            x       y       z     vdW  Elec       q    Type
REMARK                         _______ _______ _______ _____ _____    ______ ____
ROOT
ATOM      1  C8  UNL     1       1.584  -0.388  20.358  0.00  0.00    +0.000 C 
ATOM      2  C9  UNL     1       2.577  -0.412  21.535  0.00  0.00    +0.000 C 
ATOM      3  C10 UNL     1       2.738   0.881  22.319  0.00  0.00    +0.000 C 
ATOM      4  C11 UNL     1       2.112  -1.585  22.391  0.00  0.00    +0.000 C 
ATOM      5  C12 UNL     1       1.768  -2.645  21.350  0.00  0.00    +0.000 C 
ATOM      6  C13 UNL     1       1.128  -1.867  20.180  0.00  0.00    +0.000 C 
ENDROOT
BRANCH   6   7
ATOM      7  C14 UNL     1       1.453  -2.519  18.850  0.00  0.00    +0.000 C 
ATOM      8  C15 UNL     1       2.546  -3.369  18.702  0.00  0.00    +0.000 C 
ATOM      9  N1  UNL     1       2.902  -3.986  17.552  0.00  0.00    +0.000 NA
ATOM     10  C16 UNL     1       2.120  -3.795  16.467  0.00  0.00    +0.000 C 
ATOM     11  C17 UNL     1       2.516  -4.481  15.194  0.00  0.00    +0.000 C 
ATOM     12  C18 UNL     1       0.977  -3.011  16.510  0.00  0.00    +0.000 C 
ATOM     13  C19 UNL     1       0.640  -2.382  17.713  0.00  0.00    +0.000 C 
BRANCH  13  14
ATOM     14  C20 UNL     1      -0.566  -1.525  17.725  0.00  0.00    +0.000 C 
ATOM     15  N2  UNL     1      -1.795  -1.880  17.960  0.00  0.00    +0.000 NA
BRANCH  15  16
ATOM     16  O2  UNL     1      -1.905  -3.230  18.309  0.00  0.00    +0.000 OA
ATOM     17  H   UNL     1      -1.737  -3.895  17.670  0.00  0.00    +0.000 HD
ENDBRANCH  15  16
ENDBRANCH  13  14
ENDBRANCH   6   7
BRANCH   1  18
ATOM     18  C7  UNL     1       0.346   0.487  20.587  0.00  0.00    +0.000 C 
ATOM     19  O1  UNL     1      -0.572   0.111  21.314  0.00  0.00    +0.000 OA
BRANCH  18  20
ATOM     20  C5  UNL     1       0.316   1.836  19.856  0.00  0.00    +0.000 C 
ATOM     21  C6  UNL     1      -0.964   1.912  19.020  0.00  0.00    +0.000 C 
BRANCH  20  22
ATOM     22  C3  UNL     1       1.592   2.154  19.026  0.00  0.00    +0.000 C 
ATOM     23  C4  UNL     1       2.086   3.601  19.167  0.00  0.00    +0.000 C 
BRANCH  22  25
ATOM     24  C1  UNL     1       2.442   0.711  17.079  0.00  0.00    +0.000 C 
ATOM     25  C2  UNL     1       1.465   1.790  17.530  0.00  0.00    +0.000 C 
ENDBRANCH  22  25
ENDBRANCH  20  22
ENDBRANCH  18  20
ENDBRANCH   1  18
TORSDOF 7
ENDMDL
MODEL 7
REMARK VINA RESULT:    -5.867     25.166     26.926
REMARK INTER + INTRA:         -10.141
REMARK INTER:                  -8.414
REMARK INTRA:                  -1.727
REMARK UNBOUND:                -2.044
REMARK  Name = laboratorio_evolutivo\Gen4_Mutante_5.pdb
REMARK  12 active torsions:
REMARK  status: ('A' for Active; 'I' for Inactive)
REMARK    1  A    between atoms: C1_1  and  C2_2
REMARK    2  A    between atoms: C2_2  and  C3_3
REMARK    3  A    between atoms: C3_3  and  C4_4
REMARK    4  A    between atoms: C3_3  and  C5_5
REMARK    5  A    between atoms: C5_5  and  C6_6
REMARK    6  A    between atoms: C5_5  and  C7_7
REMARK    7  A    between atoms: C7_7  and  C8_9
REMARK    8  A    between atoms: C9_10  and  C10_11
REMARK    9  A    between atoms: C13_14  and  C14_15
REMARK   10  A    between atoms: C16_18  and  C17_19
REMARK   11  A    between atoms: C19_21  and  C20_22
REMARK   12  A    between atoms: N2_23  and  O2_24
REMARK                            x       y       z     vdW  Elec       q    Type
REMARK                         _______ _______ _______ _____ _____    ______ ____
ROOT
ATOM      1  C8  UNL     1      17.751  -6.862   0.015  0.00  0.00    +0.000 C 
ATOM      2  C9  UNL     1      18.035  -5.439  -0.501  0.00  0.00    +0.000 C 
ATOM      3  C10 UNL     1      17.429  -5.066  -1.845  0.00  0.00    +0.000 C 
ATOM      4  C11 UNL     1      17.582  -4.532   0.639  0.00  0.00    +0.000 C 
ATOM      5  C12 UNL     1      18.088  -5.269   1.875  0.00  0.00    +0.000 C 
ATOM      6  C13 UNL     1      17.878  -6.766   1.565  0.00  0.00    +0.000 C 
ENDROOT
BRANCH   6   7
ATOM      7  C14 UNL     1      18.961  -7.613   2.206  0.00  0.00    +0.000 C 
ATOM      8  C15 UNL     1      20.189  -7.069   2.576  0.00  0.00    +0.000 C 
ATOM      9  N1  UNL     1      21.203  -7.757   3.151  0.00  0.00    +0.000 NA
ATOM     10  C16 UNL     1      21.002  -9.065   3.422  0.00  0.00    +0.000 C 
ATOM     11  C17 UNL     1      22.127  -9.824   4.059  0.00  0.00    +0.000 C 
ATOM     12  C18 UNL     1      19.802  -9.700   3.145  0.00  0.00    +0.000 C 
ATOM     13  C19 UNL     1      18.775  -8.963   2.546  0.00  0.00    +0.000 C 
BRANCH  13  14
ATOM     14  C20 UNL     1      17.515  -9.672   2.231  0.00  0.00    +0.000 C 
ATOM     15  N2  UNL     1      16.564 -10.012   3.051  0.00  0.00    +0.000 NA
BRANCH  15  16
ATOM     16  O2  UNL     1      16.792  -9.555   4.353  0.00  0.00    +0.000 OA
ATOM     17  H   UNL     1      16.083  -9.208   4.859  0.00  0.00    +0.000 HD
ENDBRANCH  15  16
ENDBRANCH  13  14
ENDBRANCH   6   7
BRANCH   1  18
ATOM     18  C7  UNL     1      16.357  -7.399  -0.334  0.00  0.00    +0.000 C 
ATOM     19  O1  UNL     1      15.353  -6.978   0.237  0.00  0.00    +0.000 OA
BRANCH  18  20
ATOM     20  C5  UNL     1      16.294  -8.486  -1.415  0.00  0.00    +0.000 C 
ATOM     21  C6  UNL     1      15.497  -9.674  -0.870  0.00  0.00    +0.000 C 
BRANCH  20  22
ATOM     22  C3  UNL     1      17.672  -8.908  -1.996  0.00  0.00    +0.000 C 
ATOM     23  C4  UNL     1      17.846  -8.597  -3.489  0.00  0.00    +0.000 C 
BRANCH  22  25
ATOM     24  C1  UNL     1      18.656 -11.092  -2.924  0.00  0.00    +0.000 C 
ATOM     25  C2  UNL     1      18.033 -10.386  -1.726  0.00  0.00    +0.000 C 
ENDBRANCH  22  25
ENDBRANCH  20  22
ENDBRANCH  18  20
ENDBRANCH   1  18
TORSDOF 7
ENDMDL
MODEL 8
REMARK VINA RESULT:    -5.863      2.497      5.746
REMARK INTER + INTRA:         -10.135
REMARK INTER:                  -8.560
REMARK INTRA:                  -1.575
REMARK UNBOUND:                -2.044
REMARK  Name = laboratorio_evolutivo\Gen4_Mutante_5.pdb
REMARK  12 active torsions:
REMARK  status: ('A' for Active; 'I' for Inactive)
REMARK    1  A    between atoms: C1_1  and  C2_2
REMARK    2  A    between atoms: C2_2  and  C3_3
REMARK    3  A    between atoms: C3_3  and  C4_4
REMARK    4  A    between atoms: C3_3  and  C5_5
REMARK    5  A    between atoms: C5_5  and  C6_6
REMARK    6  A    between atoms: C5_5  and  C7_7
REMARK    7  A    between atoms: C7_7  and  C8_9
REMARK    8  A    between atoms: C9_10  and  C10_11
REMARK    9  A    between atoms: C13_14  and  C14_15
REMARK   10  A    between atoms: C16_18  and  C17_19
REMARK   11  A    between atoms: C19_21  and  C20_22
REMARK   12  A    between atoms: N2_23  and  O2_24
REMARK                            x       y       z     vdW  Elec       q    Type
REMARK                         _______ _______ _______ _____ _____    ______ ____
ROOT
ATOM      1  C8  UNL     1       1.872  -1.537  17.332  0.00  0.00    +0.000 C 
ATOM      2  C9  UNL     1       0.886  -0.929  16.316  0.00  0.00    +0.000 C 
ATOM      3  C10 UNL     1       1.114  -1.274  14.853  0.00  0.00    +0.000 C 
ATOM      4  C11 UNL     1      -0.486  -1.351  16.831  0.00  0.00    +0.000 C 
ATOM      5  C12 UNL     1      -0.354  -1.156  18.338  0.00  0.00    +0.000 C 
ATOM      6  C13 UNL     1       1.086  -1.598  18.676  0.00  0.00    +0.000 C 
ENDROOT
BRANCH   6   7
ATOM      7  C14 UNL     1       1.651  -0.783  19.824  0.00  0.00    +0.000 C 
ATOM      8  C15 UNL     1       2.000   0.556  19.666  0.00  0.00    +0.000 C 
ATOM      9  N1  UNL     1       2.508   1.348  20.639  0.00  0.00    +0.000 NA
ATOM     10  C16 UNL     1       2.658   0.813  21.871  0.00  0.00    +0.000 C 
ATOM     11  C17 UNL     1       3.221   1.693  22.946  0.00  0.00    +0.000 C 
ATOM     12  C18 UNL     1       2.295  -0.493  22.157  0.00  0.00    +0.000 C 
ATOM     13  C19 UNL     1       1.778  -1.287  21.129  0.00  0.00    +0.000 C 
BRANCH  13  14
ATOM     14  C20 UNL     1       1.429  -2.688  21.453  0.00  0.00    +0.000 C 
ATOM     15  N2  UNL     1       0.263  -3.166  21.775  0.00  0.00    +0.000 NA
BRANCH  15  16
ATOM     16  O2  UNL     1      -0.746  -2.200  21.715  0.00  0.00    +0.000 OA
ATOM     17  H   UNL     1      -1.387  -2.233  21.031  0.00  0.00    +0.000 HD
ENDBRANCH  15  16
ENDBRANCH  13  14
ENDBRANCH   6   7
BRANCH   1  18
ATOM     18  C7  UNL     1       2.359  -2.948  16.980  0.00  0.00    +0.000 C 
ATOM     19  O1  UNL     1       2.969  -3.167  15.935  0.00  0.00    +0.000 OA
BRANCH  18  20
ATOM     20  C5  UNL     1       2.031  -4.056  17.990  0.00  0.00    +0.000 C 
ATOM     21  C6  UNL     1       3.336  -4.543  18.623  0.00  0.00    +0.000 C 
BRANCH  20  22
ATOM     22  C3  UNL     1       1.171  -5.220  17.423  0.00  0.00    +0.000 C 
ATOM     23  C4  UNL     1      -0.341  -4.953  17.448  0.00  0.00    +0.000 C 
BRANCH  22  25
ATOM     24  C1  UNL     1       1.444  -7.754  17.098  0.00  0.00    +0.000 C 
ATOM     25  C2  UNL     1       1.469  -6.587  18.078  0.00  0.00    +0.000 C 
ENDBRANCH  22  25
ENDBRANCH  20  22
ENDBRANCH  18  20
ENDBRANCH   1  18
TORSDOF 7
ENDMDL
MODEL 9
REMARK VINA RESULT:    -5.856      2.374      5.810
REMARK INTER + INTRA:         -10.126
REMARK INTER:                  -8.123
REMARK INTRA:                  -2.003
REMARK UNBOUND:                -2.044
REMARK  Name = laboratorio_evolutivo\Gen4_Mutante_5.pdb
REMARK  12 active torsions:
REMARK  status: ('A' for Active; 'I' for Inactive)
REMARK    1  A    between atoms: C1_1  and  C2_2
REMARK    2  A    between atoms: C2_2  and  C3_3
REMARK    3  A    between atoms: C3_3  and  C4_4
REMARK    4  A    between atoms: C3_3  and  C5_5
REMARK    5  A    between atoms: C5_5  and  C6_6
REMARK    6  A    between atoms: C5_5  and  C7_7
REMARK    7  A    between atoms: C7_7  and  C8_9
REMARK    8  A    between atoms: C9_10  and  C10_11
REMARK    9  A    between atoms: C13_14  and  C14_15
REMARK   10  A    between atoms: C16_18  and  C17_19
REMARK   11  A    between atoms: C19_21  and  C20_22
REMARK   12  A    between atoms: N2_23  and  O2_24
REMARK                            x       y       z     vdW  Elec       q    Type
REMARK                         _______ _______ _______ _____ _____    ______ ____
ROOT
ATOM      1  C8  UNL     1       1.523  -1.543  18.583  0.00  0.00    +0.000 C 
ATOM      2  C9  UNL     1       2.402  -2.170  17.484  0.00  0.00    +0.000 C 
ATOM      3  C10 UNL     1       2.836  -3.612  17.697  0.00  0.00    +0.000 C 
ATOM      4  C11 UNL     1       1.602  -1.961  16.203  0.00  0.00    +0.000 C 
ATOM      5  C12 UNL     1       1.066  -0.543  16.369  0.00  0.00    +0.000 C 
ATOM      6  C13 UNL     1       0.718  -0.417  17.867  0.00  0.00    +0.000 C 
ENDROOT
BRANCH   6   7
ATOM      7  C14 UNL     1       0.951   0.998  18.364  0.00  0.00    +0.000 C 
ATOM      8  C15 UNL     1       2.006   1.772  17.890  0.00  0.00    +0.000 C 
ATOM      9  N1  UNL     1       2.279   3.038  18.283  0.00  0.00    +0.000 NA
ATOM     10  C16 UNL     1       1.446   3.613  19.178  0.00  0.00    +0.000 C 
ATOM     11  C17 UNL     1       1.752   5.016  19.611  0.00  0.00    +0.000 C 
ATOM     12  C18 UNL     1       0.334   2.956  19.679  0.00  0.00    +0.000 C 
ATOM     13  C19 UNL     1       0.082   1.646  19.258  0.00  0.00    +0.000 C 
BRANCH  13  14
ATOM     14  C20 UNL     1      -1.093   0.954  19.831  0.00  0.00    +0.000 C 
ATOM     15  N2  UNL     1      -2.302   0.907  19.356  0.00  0.00    +0.000 NA
BRANCH  15  16
ATOM     16  O2  UNL     1      -2.414   1.544  18.115  0.00  0.00    +0.000 OA
ATOM     17  H   UNL     1      -2.702   1.061  17.365  0.00  0.00    +0.000 HD
ENDBRANCH  15  16
ENDBRANCH  13  14
ENDBRANCH   6   7
BRANCH   1  18
ATOM     18  C7  UNL     1       0.535  -2.516  19.239  0.00  0.00    +0.000 C 
ATOM     19  O1  UNL     1      -0.312  -3.107  18.572  0.00  0.00    +0.000 OA
BRANCH  18  20
ATOM     20  C5  UNL     1       0.658  -2.694  20.758  0.00  0.00    +0.000 C 
ATOM     21  C6  UNL     1      -0.727  -2.521  21.386  0.00  0.00    +0.000 C 
BRANCH  20  22
ATOM     22  C3  UNL     1       1.736  -1.802  21.433  0.00  0.00    +0.000 C 
ATOM     23  C4  UNL     1       2.623  -2.544  22.442  0.00  0.00    +0.000 C 
BRANCH  22  25
ATOM     24  C1  UNL     1       2.207   0.560  22.328  0.00  0.00    +0.000 C 
ATOM     25  C2  UNL     1       1.163  -0.523  22.085  0.00  0.00    +0.000 C 
ENDBRANCH  22  25
ENDBRANCH  20  22
ENDBRANCH  18  20
ENDBRANCH   1  18
TORSDOF 7
ENDMDL
