REMARK  Name = laboratorio_evolutivo\Gen4_Mutante_3.pdb
REMARK  12 active torsions:
REMARK  status: ('A' for Active; 'I' for Inactive)
REMARK    1  A    between atoms: C1_1  and  C2_2
REMARK    2  A    between atoms: C2_2  and  C3_3
REMARK    3  A    between atoms: C3_3  and  C4_4
REMARK    4  A    between atoms: C3_3  and  C6_6
REMARK    5  A    between atoms: C4_4  and  C5_5
REMARK    6  A    between atoms: C6_6  and  C7_7
REMARK    7  A    between atoms: C7_7  and  C8_9
REMARK    8  A    between atoms: C9_10  and  C10_11
REMARK    9  A    between atoms: C13_14  and  C14_15
REMARK   10  A    between atoms: C16_18  and  C17_19
REMARK   11  A    between atoms: C19_21  and  C20_22
REMARK   12  A    between atoms: N2_23  and  O2_24
REMARK                            x       y       z     vdW  Elec       q    Type
REMARK                         _______ _______ _______ _____ _____    ______ ____
ROOT
ATOM      1  C8  UNL     1      -0.179   0.822  -0.551  0.00  0.00    +0.000 C 
ATOM      2  C9  UNL     1       0.322   2.171  -0.015  0.00  0.00    +0.000 C 
ATOM      3  C10 UNL     1       0.863   3.088  -1.103  0.00  0.00    +0.000 C 
ATOM      4  C11 UNL     1      -0.913   2.746   0.672  0.00  0.00    +0.000 C 
ATOM      5  C12 UNL     1      -1.550   1.546   1.364  0.00  0.00    +0.000 C 
ATOM      6  C13 UNL     1      -1.143   0.306   0.539  0.00  0.00    +0.000 C 
ENDROOT
BRANCH   6   7
ATOM      7  C14 UNL     1      -2.283  -0.535   0.004  0.00  0.00    +0.000 C 
ATOM      8  C15 UNL     1      -2.243  -1.912   0.219  0.00  0.00    +0.000 C 
ATOM      9  N1  UNL     1      -3.192  -2.793  -0.173  0.00  0.00    +0.000 NA
ATOM     10  C16 UNL     1      -4.267  -2.306  -0.827  0.00  0.00    +0.000 C 
ATOM     11  C17 UNL     1      -5.316  -3.284  -1.259  0.00  0.00    +0.000 C 
ATOM     12  C18 UNL     1      -4.409  -0.957  -1.107  0.00  0.00    +0.000 C 
ATOM     13  C19 UNL     1      -3.412  -0.072  -0.685  0.00  0.00    +0.000 C 
BRANCH  13  14
ATOM     14  C20 UNL     1      -3.578   1.343  -1.067  0.00  0.00    +0.000 C 
ATOM     15  N2  UNL     1      -4.573   2.130  -0.780  0.00  0.00    +0.000 NA
BRANCH  15  16
ATOM     16  O2  UNL     1      -5.520   1.506   0.039  0.00  0.00    +0.000 OA
ATOM     17  H   UNL     1      -6.284   1.975   0.313  0.00  0.00    +0.000 HD
ENDBRANCH  15  16
ENDBRANCH  13  14
ENDBRANCH   6   7
BRANCH   1  18
ATOM     18  C7  UNL     1       0.961  -0.137  -0.887  0.00  0.00    +0.000 C 
ATOM     19  O1  UNL     1       1.179  -0.430  -2.064  0.00  0.00    +0.000 OA
BRANCH  18  20
ATOM     20  C6  UNL     1       1.790  -0.733   0.244  0.00  0.00    +0.000 C 
BRANCH  20  21
ATOM     21  C3  UNL     1       3.226  -1.109  -0.178  0.00  0.00    +0.000 C 
BRANCH  21  23
ATOM     22  C1  UNL     1       5.256  -2.490   0.577  0.00  0.00    +0.000 C 
ATOM     23  C2  UNL     1       3.868  -1.972   0.929  0.00  0.00    +0.000 C 
ENDBRANCH  21  23
BRANCH  21  24
ATOM     24  C4  UNL     1       4.069   0.126  -0.569  0.00  0.00    +0.000 C 
ATOM     25  C5  UNL     1       4.396   1.086   0.567  0.00  0.00    +0.000 C 
ENDBRANCH  21  24
ENDBRANCH  20  21
ENDBRANCH  18  20
ENDBRANCH   1  18
TORSDOF 8
