REMARK  Name = laboratorio_evolutivo\Gen5_Mutante_7.pdb
REMARK  13 active torsions:
REMARK  status: ('A' for Active; 'I' for Inactive)
REMARK    1  A    between atoms: C1_1  and  C2_2
REMARK    2  A    between atoms: C2_2  and  C3_3
REMARK    3  A    between atoms: C3_3  and  C4_4
REMARK    4  A    between atoms: C3_3  and  C6_6
REMARK    5  A    between atoms: C4_4  and  C5_5
REMARK    6  A    between atoms: C6_6  and  C7_7
REMARK    7  A    between atoms: C7_7  and  C8_9
REMARK    8  A    between atoms: C9_10  and  C10_11
REMARK    9  A    between atoms: C13_14  and  C14_15
REMARK   10  A    between atoms: C15_16  and  C16_17
REMARK   11  A    between atoms: N1_18  and  O2_19
REMARK   12  A    between atoms: C18_21  and  C19_22
REMARK   13  A    between atoms: C20_24  and  C21_25
REMARK                            x       y       z     vdW  Elec       q    Type
REMARK                         _______ _______ _______ _____ _____    ______ ____
ROOT
ATOM      1  C8  UNL     1       0.146  -0.823  -0.257  0.00  0.00    +0.000 C 
ATOM      2  C9  UNL     1       0.044  -2.028  -1.198  0.00  0.00    +0.000 C 
ATOM      3  C10 UNL     1      -1.301  -2.234  -1.877  0.00  0.00    +0.000 C 
ATOM      4  C11 UNL     1       0.469  -3.221  -0.345  0.00  0.00    +0.000 C 
ATOM      5  C12 UNL     1       1.429  -2.673   0.711  0.00  0.00    +0.000 C 
ATOM      6  C13 UNL     1       1.379  -1.136   0.630  0.00  0.00    +0.000 C 
ENDROOT
BRANCH   6   7
ATOM      7  C14 UNL     1       2.599  -0.327   0.190  0.00  0.00    +0.000 C 
ATOM      8  C15 UNL     1       2.680   1.025   0.610  0.00  0.00    +0.000 C 
ATOM      9  C17 UNL     1       3.719   1.871   0.228  0.00  0.00    +0.000 C 
ATOM     10  C18 UNL     1       4.693   1.359  -0.597  0.00  0.00    +0.000 C 
ATOM     11  C19 UNL     1       5.838   2.213  -1.048  0.00  0.00    +0.000 C 
ATOM     12  N2  UNL     1       4.658   0.083  -1.028  0.00  0.00    +0.000 NA
ATOM     13  C20 UNL     1       3.634  -0.741  -0.661  0.00  0.00    +0.000 C 
ATOM     14  C21 UNL     1       3.784  -2.109  -1.253  0.00  0.00    +0.000 C 
BRANCH   8  15
ATOM     15  C16 UNL     1       1.676   1.610   1.526  0.00  0.00    +0.000 C 
ATOM     16  N1  UNL     1       0.860   2.588   1.269  0.00  0.00    +0.000 NA
BRANCH  16  17
ATOM     17  O2  UNL     1       0.984   3.043  -0.048  0.00  0.00    +0.000 OA
ATOM     18  H   UNL     1       0.447   3.747  -0.353  0.00  0.00    +0.000 HD
ENDBRANCH  16  17
ENDBRANCH   8  15
ENDBRANCH   6   7
BRANCH   1  19
ATOM     19  C7  UNL     1      -1.093  -0.611   0.618  0.00  0.00    +0.000 C 
ATOM     20  O1  UNL     1      -1.337  -1.355   1.568  0.00  0.00    +0.000 OA
BRANCH  19  21
ATOM     21  C6  UNL     1      -2.022   0.529   0.216  0.00  0.00    +0.000 C 
BRANCH  21  22
ATOM     22  C3  UNL     1      -2.980   0.977   1.335  0.00  0.00    +0.000 C 
BRANCH  22  24
ATOM     23  C1  UNL     1      -4.379   2.597  -0.143  0.00  0.00    +0.000 C 
ATOM     24  C2  UNL     1      -3.500   2.412   1.084  0.00  0.00    +0.000 C 
ENDBRANCH  22  24
BRANCH  22  25
ATOM     25  C4  UNL     1      -4.121  -0.015   1.663  0.00  0.00    +0.000 C 
ATOM     26  C5  UNL     1      -4.724  -0.782   0.494  0.00  0.00    +0.000 C 
ENDBRANCH  22  25
ENDBRANCH  21  22
ENDBRANCH  19  21
ENDBRANCH   1  19
TORSDOF 8
