MODEL 1
REMARK VINA RESULT:    -6.377      0.000      0.000
REMARK INTER + INTRA:         -11.212
REMARK INTER:                  -9.172
REMARK INTRA:                  -2.040
REMARK UNBOUND:                -2.040
REMARK  Name = laboratorio_evolutivo\Gen5_Mutante_8.pdb
REMARK  12 active torsions:
REMARK  status: ('A' for Active; 'I' for Inactive)
REMARK    1  A    between atoms: C1_1  and  C2_2
REMARK    2  A    between atoms: C2_2  and  C3_3
REMARK    3  A    between atoms: C3_3  and  C4_4
REMARK    4  A    between atoms: C3_3  and  C6_6
REMARK    5  A    between atoms: C4_4  and  C5_5
REMARK    6  A    between atoms: C6_6  and  C7_7
REMARK    7  A    between atoms: C7_7  and  C8_9
REMARK    8  A    between atoms: C9_10  and  C10_11
REMARK    9  A    between atoms: C13_14  and  C14_15
REMARK   10  A    between atoms: C15_16  and  C16_17
REMARK   11  A    between atoms: N1_18  and  O2_19
REMARK   12  A    between atoms: C18_21  and  C19_22
REMARK                            x       y       z     vdW  Elec       q    Type
REMARK                         _______ _______ _______ _____ _____    ______ ____
ROOT
ATOM      1  C8  UNL     1       1.949   0.911  20.418  0.00  0.00    +0.000 C 
ATOM      2  C9  UNL     1       2.669   1.476  21.654  0.00  0.00    +0.000 C 
ATOM      3  C10 UNL     1       4.080   1.974  21.373  0.00  0.00    +0.000 C 
ATOM      4  C11 UNL     1       2.675   0.300  22.629  0.00  0.00    +0.000 C 
ATOM      5  C12 UNL     1       1.309  -0.351  22.453  0.00  0.00    +0.000 C 
ATOM      6  C13 UNL     1       0.857  -0.021  21.017  0.00  0.00    +0.000 C 
ENDROOT
BRANCH   6   7
ATOM      7  C14 UNL     1       0.516  -1.230  20.168  0.00  0.00    +0.000 C 
ATOM      8  C15 UNL     1      -0.689  -1.452  19.491  0.00  0.00    +0.000 C 
ATOM      9  C17 UNL     1      -0.923  -2.643  18.793  0.00  0.00    +0.000 C 
ATOM     10  C18 UNL     1       0.069  -3.607  18.777  0.00  0.00    +0.000 C 
ATOM     11  C19 UNL     1      -0.147  -4.905  18.062  0.00  0.00    +0.000 C 
ATOM     12  N2  UNL     1       1.253  -3.425  19.394  0.00  0.00    +0.000 NA
ATOM     13  C20 UNL     1       1.445  -2.265  20.065  0.00  0.00    +0.000 C 
ATOM     14  F1  UNL     1       2.636  -2.134  20.669  0.00  0.00    +0.000 F 
BRANCH   8  15
ATOM     15  C16 UNL     1      -1.755  -0.436  19.432  0.00  0.00    +0.000 C 
ATOM     16  N1  UNL     1      -2.723  -0.264  20.283  0.00  0.00    +0.000 NA
BRANCH  16  17
ATOM     17  O2  UNL     1      -2.643  -1.164  21.351  0.00  0.00    +0.000 OA
ATOM     18  H   UNL     1      -2.879  -0.889  22.215  0.00  0.00    +0.000 HD
ENDBRANCH  16  17
ENDBRANCH   8  15
ENDBRANCH   6   7
BRANCH   1  19
ATOM     19  C7  UNL     1       1.343   2.033  19.579  0.00  0.00    +0.000 C 
ATOM     20  O1  UNL     1       0.321   2.626  19.940  0.00  0.00    +0.000 OA
BRANCH  19  21
ATOM     21  C6  UNL     1       2.082   2.484  18.327  0.00  0.00    +0.000 C 
BRANCH  21  22
ATOM     22  C3  UNL     1       1.885   1.595  17.086  0.00  0.00    +0.000 C 
BRANCH  22  24
ATOM     23  C1  UNL     1       1.699  -0.948  16.576  0.00  0.00    +0.000 C 
ATOM     24  C2  UNL     1       2.481   0.175  17.243  0.00  0.00    +0.000 C 
ENDBRANCH  22  24
BRANCH  22  25
ATOM     25  C4  UNL     1       0.396   1.512  16.681  0.00  0.00    +0.000 C 
ATOM     26  C5  UNL     1       0.008   2.488  15.573  0.00  0.00    +0.000 C 
ENDBRANCH  22  25
ENDBRANCH  21  22
ENDBRANCH  19  21
ENDBRANCH   1  19
TORSDOF 8
ENDMDL
MODEL 2
REMARK VINA RESULT:    -6.214      0.533      1.492
REMARK INTER + INTRA:         -10.979
REMARK INTER:                  -8.752
REMARK INTRA:                  -2.227
REMARK UNBOUND:                -2.040
REMARK  Name = laboratorio_evolutivo\Gen5_Mutante_8.pdb
REMARK  12 active torsions:
REMARK  status: ('A' for Active; 'I' for Inactive)
REMARK    1  A    between atoms: C1_1  and  C2_2
REMARK    2  A    between atoms: C2_2  and  C3_3
REMARK    3  A    between atoms: C3_3  and  C4_4
REMARK    4  A    between atoms: C3_3  and  C6_6
REMARK    5  A    between atoms: C4_4  and  C5_5
REMARK    6  A    between atoms: C6_6  and  C7_7
REMARK    7  A    between atoms: C7_7  and  C8_9
REMARK    8  A    between atoms: C9_10  and  C10_11
REMARK    9  A    between atoms: C13_14  and  C14_15
REMARK   10  A    between atoms: C15_16  and  C16_17
REMARK   11  A    between atoms: N1_18  and  O2_19
REMARK   12  A    between atoms: C18_21  and  C19_22
REMARK                            x       y       z     vdW  Elec       q    Type
REMARK                         _______ _______ _______ _____ _____    ______ ____
ROOT
ATOM      1  C8  UNL     1       1.881   0.668  20.229  0.00  0.00    +0.000 C 
ATOM      2  C9  UNL     1       2.478   1.296  21.500  0.00  0.00    +0.000 C 
ATOM      3  C10 UNL     1       3.929   1.731  21.350  0.00  0.00    +0.000 C 
ATOM      4  C11 UNL     1       2.331   0.191  22.544  0.00  0.00    +0.000 C 
ATOM      5  C12 UNL     1       0.970  -0.429  22.256  0.00  0.00    +0.000 C 
ATOM      6  C13 UNL     1       0.694  -0.187  20.759  0.00  0.00    +0.000 C 
ENDROOT
BRANCH   6   7
ATOM      7  C14 UNL     1       0.407  -1.442  19.959  0.00  0.00    +0.000 C 
ATOM      8  C15 UNL     1      -0.810  -1.772  19.348  0.00  0.00    +0.000 C 
ATOM      9  C17 UNL     1      -0.985  -2.997  18.692  0.00  0.00    +0.000 C 
ATOM     10  C18 UNL     1       0.074  -3.885  18.652  0.00  0.00    +0.000 C 
ATOM     11  C19 UNL     1      -0.076  -5.216  17.981  0.00  0.00    +0.000 C 
ATOM     12  N2  UNL     1       1.269  -3.598  19.205  0.00  0.00    +0.000 NA
ATOM     13  C20 UNL     1       1.404  -2.408  19.837  0.00  0.00    +0.000 C 
ATOM     14  F1  UNL     1       2.609  -2.171  20.378  0.00  0.00    +0.000 F 
BRANCH   8  15
ATOM     15  C16 UNL     1      -1.951  -0.841  19.315  0.00  0.00    +0.000 C 
ATOM     16  N1  UNL     1      -2.833  -0.647  20.252  0.00  0.00    +0.000 NA
BRANCH  16  17
ATOM     17  O2  UNL     1      -2.570  -1.428  21.383  0.00  0.00    +0.000 OA
ATOM     18  H   UNL     1      -1.876  -1.190  21.965  0.00  0.00    +0.000 HD
ENDBRANCH  16  17
ENDBRANCH   8  15
ENDBRANCH   6   7
BRANCH   1  19
ATOM     19  C7  UNL     1       1.415   1.746  19.254  0.00  0.00    +0.000 C 
ATOM     20  O1  UNL     1       0.802   2.745  19.644  0.00  0.00    +0.000 OA
BRANCH  19  21
ATOM     21  C6  UNL     1       1.810   1.620  17.789  0.00  0.00    +0.000 C 
BRANCH  21  22
ATOM     22  C3  UNL     1       1.046   0.550  16.988  0.00  0.00    +0.000 C 
BRANCH  22  24
ATOM     23  C1  UNL     1       0.079   2.596  15.708  0.00  0.00    +0.000 C 
ATOM     24  C2  UNL     1       0.373   1.102  15.708  0.00  0.00    +0.000 C 
ENDBRANCH  22  24
BRANCH  22  25
ATOM     25  C4  UNL     1       1.954  -0.652  16.644  0.00  0.00    +0.000 C 
ATOM     26  C5  UNL     1       1.245  -1.748  15.854  0.00  0.00    +0.000 C 
ENDBRANCH  22  25
ENDBRANCH  21  22
ENDBRANCH  19  21
ENDBRANCH   1  19
TORSDOF 8
ENDMDL
MODEL 3
REMARK VINA RESULT:    -6.168     24.919     27.980
REMARK INTER + INTRA:         -10.912
REMARK INTER:                  -9.134
REMARK INTRA:                  -1.778
REMARK UNBOUND:                -2.040
REMARK  Name = laboratorio_evolutivo\Gen5_Mutante_8.pdb
REMARK  12 active torsions:
REMARK  status: ('A' for Active; 'I' for Inactive)
REMARK    1  A    between atoms: C1_1  and  C2_2
REMARK    2  A    between atoms: C2_2  and  C3_3
REMARK    3  A    between atoms: C3_3  and  C4_4
REMARK    4  A    between atoms: C3_3  and  C6_6
REMARK    5  A    between atoms: C4_4  and  C5_5
REMARK    6  A    between atoms: C6_6  and  C7_7
REMARK    7  A    between atoms: C7_7  and  C8_9
REMARK    8  A    between atoms: C9_10  and  C10_11
REMARK    9  A    between atoms: C13_14  and  C14_15
REMARK   10  A    between atoms: C15_16  and  C16_17
REMARK   11  A    between atoms: N1_18  and  O2_19
REMARK   12  A    between atoms: C18_21  and  C19_22
REMARK                            x       y       z     vdW  Elec       q    Type
REMARK                         _______ _______ _______ _____ _____    ______ ____
ROOT
ATOM      1  C8  UNL     1      21.107  20.392  18.896  0.00  0.00    +0.000 C 
ATOM      2  C9  UNL     1      22.488  20.780  19.452  0.00  0.00    +0.000 C 
ATOM      3  C10 UNL     1      22.707  22.282  19.571  0.00  0.00    +0.000 C 
ATOM      4  C11 UNL     1      23.460  20.151  18.455  0.00  0.00    +0.000 C 
ATOM      5  C12 UNL     1      22.840  18.802  18.114  0.00  0.00    +0.000 C 
ATOM      6  C13 UNL     1      21.322  18.959  18.332  0.00  0.00    +0.000 C 
ENDROOT
BRANCH   6   7
ATOM      7  C14 UNL     1      20.472  18.617  17.124  0.00  0.00    +0.000 C 
ATOM      8  C15 UNL     1      20.433  19.322  15.914  0.00  0.00    +0.000 C 
ATOM      9  C17 UNL     1      19.553  18.957  14.888  0.00  0.00    +0.000 C 
ATOM     10  C18 UNL     1      18.718  17.872  15.085  0.00  0.00    +0.000 C 
ATOM     11  C19 UNL     1      17.746  17.460  14.023  0.00  0.00    +0.000 C 
ATOM     12  N2  UNL     1      18.741  17.150  16.223  0.00  0.00    +0.000 NA
ATOM     13  C20 UNL     1      19.598  17.533  17.198  0.00  0.00    +0.000 C 
ATOM     14  F1  UNL     1      19.579  16.788  18.314  0.00  0.00    +0.000 F 
BRANCH   8  15
ATOM     15  C16 UNL     1      21.338  20.450  15.633  0.00  0.00    +0.000 C 
ATOM     16  N1  UNL     1      21.062  21.719  15.719  0.00  0.00    +0.000 NA
BRANCH  16  17
ATOM     17  O2  UNL     1      19.753  21.937  16.163  0.00  0.00    +0.000 OA
ATOM     18  H   UNL     1      19.301  22.721  15.921  0.00  0.00    +0.000 HD
ENDBRANCH  16  17
ENDBRANCH   8  15
ENDBRANCH   6   7
BRANCH   1  19
ATOM     19  C7  UNL     1      20.049  20.419  19.997  0.00  0.00    +0.000 C 
ATOM     20  O1  UNL     1      18.957  20.968  19.825  0.00  0.00    +0.000 OA
BRANCH  19  21
ATOM     21  C6  UNL     1      20.325  19.661  21.288  0.00  0.00    +0.000 C 
BRANCH  21  22
ATOM     22  C3  UNL     1      20.165  18.132  21.204  0.00  0.00    +0.000 C 
BRANCH  22  24
ATOM     23  C1  UNL     1      22.685  18.058  21.839  0.00  0.00    +0.000 C 
ATOM     24  C2  UNL     1      21.336  17.353  21.850  0.00  0.00    +0.000 C 
ENDBRANCH  22  24
BRANCH  22  25
ATOM     25  C4  UNL     1      18.816  17.672  21.802  0.00  0.00    +0.000 C 
ATOM     26  C5  UNL     1      18.423  16.252  21.405  0.00  0.00    +0.000 C 
ENDBRANCH  22  25
ENDBRANCH  21  22
ENDBRANCH  19  21
ENDBRANCH   1  19
TORSDOF 8
ENDMDL
MODEL 4
REMARK VINA RESULT:    -6.165     23.577     25.988
REMARK INTER + INTRA:         -10.909
REMARK INTER:                  -8.741
REMARK INTRA:                  -2.168
REMARK UNBOUND:                -2.040
REMARK  Name = laboratorio_evolutivo\Gen5_Mutante_8.pdb
REMARK  12 active torsions:
REMARK  status: ('A' for Active; 'I' for Inactive)
REMARK    1  A    between atoms: C1_1  and  C2_2
REMARK    2  A    between atoms: C2_2  and  C3_3
REMARK    3  A    between atoms: C3_3  and  C4_4
REMARK    4  A    between atoms: C3_3  and  C6_6
REMARK    5  A    between atoms: C4_4  and  C5_5
REMARK    6  A    between atoms: C6_6  and  C7_7
REMARK    7  A    between atoms: C7_7  and  C8_9
REMARK    8  A    between atoms: C9_10  and  C10_11
REMARK    9  A    between atoms: C13_14  and  C14_15
REMARK   10  A    between atoms: C15_16  and  C16_17
REMARK   11  A    between atoms: N1_18  and  O2_19
REMARK   12  A    between atoms: C18_21  and  C19_22
REMARK                            x       y       z     vdW  Elec       q    Type
REMARK                         _______ _______ _______ _____ _____    ______ ____
ROOT
ATOM      1  C8  UNL     1      18.368  -7.898   2.365  0.00  0.00    +0.000 C 
ATOM      2  C9  UNL     1      19.733  -8.308   2.944  0.00  0.00    +0.000 C 
ATOM      3  C10 UNL     1      19.723  -8.535   4.449  0.00  0.00    +0.000 C 
ATOM      4  C11 UNL     1      20.644  -7.143   2.560  0.00  0.00    +0.000 C 
ATOM      5  C12 UNL     1      20.206  -6.761   1.152  0.00  0.00    +0.000 C 
ATOM      6  C13 UNL     1      18.728  -7.183   1.032  0.00  0.00    +0.000 C 
ENDROOT
BRANCH   6   7
ATOM      7  C14 UNL     1      17.783  -6.066   0.634  0.00  0.00    +0.000 C 
ATOM      8  C15 UNL     1      17.043  -5.993  -0.553  0.00  0.00    +0.000 C 
ATOM      9  C17 UNL     1      16.254  -4.875  -0.850  0.00  0.00    +0.000 C 
ATOM     10  C18 UNL     1      16.212  -3.833   0.058  0.00  0.00    +0.000 C 
ATOM     11  C19 UNL     1      15.399  -2.608  -0.230  0.00  0.00    +0.000 C 
ATOM     12  N2  UNL     1      16.888  -3.872   1.223  0.00  0.00    +0.000 NA
ATOM     13  C20 UNL     1      17.646  -4.965   1.478  0.00  0.00    +0.000 C 
ATOM     14  F1  UNL     1      18.307  -4.954   2.646  0.00  0.00    +0.000 F 
BRANCH   8  15
ATOM     15  C16 UNL     1      17.011  -7.097  -1.528  0.00  0.00    +0.000 C 
ATOM     16  N1  UNL     1      17.824  -7.287  -2.525  0.00  0.00    +0.000 NA
BRANCH  16  17
ATOM     17  O2  UNL     1      18.820  -6.306  -2.579  0.00  0.00    +0.000 OA
ATOM     18  H   UNL     1      19.549  -6.409  -3.158  0.00  0.00    +0.000 HD
ENDBRANCH  16  17
ENDBRANCH   8  15
ENDBRANCH   6   7
BRANCH   1  19
ATOM     19  C7  UNL     1      17.483  -9.121   2.135  0.00  0.00    +0.000 C 
ATOM     20  O1  UNL     1      17.926 -10.144   1.602  0.00  0.00    +0.000 OA
BRANCH  19  21
ATOM     21  C6  UNL     1      16.058  -9.098   2.669  0.00  0.00    +0.000 C 
BRANCH  21  22
ATOM     22  C3  UNL     1      15.013  -8.456   1.738  0.00  0.00    +0.000 C 
BRANCH  22  24
ATOM     23  C1  UNL     1      13.928 -10.812   1.570  0.00  0.00    +0.000 C 
ATOM     24  C2  UNL     1      13.728  -9.303   1.576  0.00  0.00    +0.000 C 
ENDBRANCH  22  24
BRANCH  22  25
ATOM     25  C4  UNL     1      14.660  -7.021   2.190  0.00  0.00    +0.000 C 
ATOM     26  C5  UNL     1      15.049  -6.722   3.636  0.00  0.00    +0.000 C 
ENDBRANCH  22  25
ENDBRANCH  21  22
ENDBRANCH  19  21
ENDBRANCH   1  19
TORSDOF 8
ENDMDL
MODEL 5
REMARK VINA RESULT:    -6.044     24.832     27.533
REMARK INTER + INTRA:         -10.733
REMARK INTER:                  -9.880
REMARK INTRA:                  -0.853
REMARK UNBOUND:                -2.040
REMARK  Name = laboratorio_evolutivo\Gen5_Mutante_8.pdb
REMARK  12 active torsions:
REMARK  status: ('A' for Active; 'I' for Inactive)
REMARK    1  A    between atoms: C1_1  and  C2_2
REMARK    2  A    between atoms: C2_2  and  C3_3
REMARK    3  A    between atoms: C3_3  and  C4_4
REMARK    4  A    between atoms: C3_3  and  C6_6
REMARK    5  A    between atoms: C4_4  and  C5_5
REMARK    6  A    between atoms: C6_6  and  C7_7
REMARK    7  A    between atoms: C7_7  and  C8_9
REMARK    8  A    between atoms: C9_10  and  C10_11
REMARK    9  A    between atoms: C13_14  and  C14_15
REMARK   10  A    between atoms: C15_16  and  C16_17
REMARK   11  A    between atoms: N1_18  and  O2_19
REMARK   12  A    between atoms: C18_21  and  C19_22
REMARK                            x       y       z     vdW  Elec       q    Type
REMARK                         _______ _______ _______ _____ _____    ______ ____
ROOT
ATOM      1  C8  UNL     1      21.203  20.172  18.511  0.00  0.00    +0.000 C 
ATOM      2  C9  UNL     1      22.649  20.353  19.001  0.00  0.00    +0.000 C 
ATOM      3  C10 UNL     1      23.083  21.808  19.121  0.00  0.00    +0.000 C 
ATOM      4  C11 UNL     1      23.474  19.609  17.953  0.00  0.00    +0.000 C 
ATOM      5  C12 UNL     1      22.655  18.366  17.632  0.00  0.00    +0.000 C 
ATOM      6  C13 UNL     1      21.186  18.731  17.925  0.00  0.00    +0.000 C 
ENDROOT
BRANCH   6   7
ATOM      7  C14 UNL     1      20.240  18.529  16.758  0.00  0.00    +0.000 C 
ATOM      8  C15 UNL     1      19.321  17.482  16.610  0.00  0.00    +0.000 C 
ATOM      9  C17 UNL     1      18.545  17.355  15.451  0.00  0.00    +0.000 C 
ATOM     10  C18 UNL     1      18.697  18.291  14.445  0.00  0.00    +0.000 C 
ATOM     11  C19 UNL     1      17.903  18.180  13.180  0.00  0.00    +0.000 C 
ATOM     12  N2  UNL     1      19.550  19.328  14.557  0.00  0.00    +0.000 NA
ATOM     13  C20 UNL     1      20.290  19.420  15.687  0.00  0.00    +0.000 C 
ATOM     14  F1  UNL     1      21.131  20.464  15.747  0.00  0.00    +0.000 F 
BRANCH   8  15
ATOM     15  C16 UNL     1      19.083  16.490  17.673  0.00  0.00    +0.000 C 
ATOM     16  N1  UNL     1      18.634  15.278  17.528  0.00  0.00    +0.000 NA
BRANCH  16  17
ATOM     17  O2  UNL     1      18.413  14.961  16.183  0.00  0.00    +0.000 OA
ATOM     18  H   UNL     1      17.889  15.525  15.650  0.00  0.00    +0.000 HD
ENDBRANCH  16  17
ENDBRANCH   8  15
ENDBRANCH   6   7
BRANCH   1  19
ATOM     19  C7  UNL     1      20.213  20.330  19.662  0.00  0.00    +0.000 C 
ATOM     20  O1  UNL     1      19.089  20.810  19.482  0.00  0.00    +0.000 OA
BRANCH  19  21
ATOM     21  C6  UNL     1      20.598  19.788  21.031  0.00  0.00    +0.000 C 
BRANCH  21  22
ATOM     22  C3  UNL     1      20.516  18.258  21.184  0.00  0.00    +0.000 C 
BRANCH  22  24
ATOM     23  C1  UNL     1      23.072  17.925  21.517  0.00  0.00    +0.000 C 
ATOM     24  C2  UNL     1      21.664  17.660  22.033  0.00  0.00    +0.000 C 
ENDBRANCH  22  24
BRANCH  22  25
ATOM     25  C4  UNL     1      19.145  17.820  21.747  0.00  0.00    +0.000 C 
ATOM     26  C5  UNL     1      18.731  16.413  21.322  0.00  0.00    +0.000 C 
ENDBRANCH  22  25
ENDBRANCH  21  22
ENDBRANCH  19  21
ENDBRANCH   1  19
TORSDOF 8
ENDMDL
MODEL 6
REMARK VINA RESULT:    -6.010      1.706      2.902
REMARK INTER + INTRA:         -10.685
REMARK INTER:                  -9.005
REMARK INTRA:                  -1.681
REMARK UNBOUND:                -2.040
REMARK  Name = laboratorio_evolutivo\Gen5_Mutante_8.pdb
REMARK  12 active torsions:
REMARK  status: ('A' for Active; 'I' for Inactive)
REMARK    1  A    between atoms: C1_1  and  C2_2
REMARK    2  A    between atoms: C2_2  and  C3_3
REMARK    3  A    between atoms: C3_3  and  C4_4
REMARK    4  A    between atoms: C3_3  and  C6_6
REMARK    5  A    between atoms: C4_4  and  C5_5
REMARK    6  A    between atoms: C6_6  and  C7_7
REMARK    7  A    between atoms: C7_7  and  C8_9
REMARK    8  A    between atoms: C9_10  and  C10_11
REMARK    9  A    between atoms: C13_14  and  C14_15
REMARK   10  A    between atoms: C15_16  and  C16_17
REMARK   11  A    between atoms: N1_18  and  O2_19
REMARK   12  A    between atoms: C18_21  and  C19_22
REMARK                            x       y       z     vdW  Elec       q    Type
REMARK                         _______ _______ _______ _____ _____    ______ ____
ROOT
ATOM      1  C8  UNL     1       1.862   0.841  20.257  0.00  0.00    +0.000 C 
ATOM      2  C9  UNL     1       2.538   1.457  21.493  0.00  0.00    +0.000 C 
ATOM      3  C10 UNL     1       3.958   1.944  21.242  0.00  0.00    +0.000 C 
ATOM      4  C11 UNL     1       2.509   0.322  22.515  0.00  0.00    +0.000 C 
ATOM      5  C12 UNL     1       1.150  -0.337  22.318  0.00  0.00    +0.000 C 
ATOM      6  C13 UNL     1       0.749  -0.066  20.855  0.00  0.00    +0.000 C 
ENDROOT
BRANCH   6   7
ATOM      7  C14 UNL     1       0.438  -1.310  20.045  0.00  0.00    +0.000 C 
ATOM      8  C15 UNL     1      -0.779  -1.605  19.416  0.00  0.00    +0.000 C 
ATOM      9  C17 UNL     1      -0.978  -2.822  18.753  0.00  0.00    +0.000 C 
ATOM     10  C18 UNL     1       0.058  -3.737  18.722  0.00  0.00    +0.000 C 
ATOM     11  C19 UNL     1      -0.119  -5.060  18.043  0.00  0.00    +0.000 C 
ATOM     12  N2  UNL     1       1.252  -3.484  19.291  0.00  0.00    +0.000 NA
ATOM     13  C20 UNL     1       1.411  -2.301  19.930  0.00  0.00    +0.000 C 
ATOM     14  F1  UNL     1       2.615  -2.099  20.488  0.00  0.00    +0.000 F 
BRANCH   8  15
ATOM     15  C16 UNL     1      -1.894  -0.643  19.374  0.00  0.00    +0.000 C 
ATOM     16  N1  UNL     1      -2.808  -0.461  20.282  0.00  0.00    +0.000 NA
BRANCH  16  17
ATOM     17  O2  UNL     1      -2.611  -1.288  21.392  0.00  0.00    +0.000 OA
ATOM     18  H   UNL     1      -3.287  -1.380  22.034  0.00  0.00    +0.000 HD
ENDBRANCH  16  17
ENDBRANCH   8  15
ENDBRANCH   6   7
BRANCH   1  19
ATOM     19  C7  UNL     1       1.286   1.928  19.352  0.00  0.00    +0.000 C 
ATOM     20  O1  UNL     1       1.823   2.221  18.279  0.00  0.00    +0.000 OA
BRANCH  19  21
ATOM     21  C6  UNL     1      -0.031   2.580  19.747  0.00  0.00    +0.000 C 
BRANCH  21  22
ATOM     22  C3  UNL     1      -0.009   4.118  19.831  0.00  0.00    +0.000 C 
BRANCH  22  24
ATOM     23  C1  UNL     1      -1.171   5.934  21.283  0.00  0.00    +0.000 C 
ATOM     24  C2  UNL     1      -1.326   4.725  20.370  0.00  0.00    +0.000 C 
ENDBRANCH  22  24
BRANCH  22  25
ATOM     25  C4  UNL     1       1.195   4.621  20.659  0.00  0.00    +0.000 C 
ATOM     26  C5  UNL     1       2.182   5.462  19.854  0.00  0.00    +0.000 C 
ENDBRANCH  22  25
ENDBRANCH  21  22
ENDBRANCH  19  21
ENDBRANCH   1  19
TORSDOF 8
ENDMDL
MODEL 7
REMARK VINA RESULT:    -5.885     24.770     26.662
REMARK INTER + INTRA:         -10.506
REMARK INTER:                  -8.743
REMARK INTRA:                  -1.763
REMARK UNBOUND:                -2.040
REMARK  Name = laboratorio_evolutivo\Gen5_Mutante_8.pdb
REMARK  12 active torsions:
REMARK  status: ('A' for Active; 'I' for Inactive)
REMARK    1  A    between atoms: C1_1  and  C2_2
REMARK    2  A    between atoms: C2_2  and  C3_3
REMARK    3  A    between atoms: C3_3  and  C4_4
REMARK    4  A    between atoms: C3_3  and  C6_6
REMARK    5  A    between atoms: C4_4  and  C5_5
REMARK    6  A    between atoms: C6_6  and  C7_7
REMARK    7  A    between atoms: C7_7  and  C8_9
REMARK    8  A    between atoms: C9_10  and  C10_11
REMARK    9  A    between atoms: C13_14  and  C14_15
REMARK   10  A    between atoms: C15_16  and  C16_17
REMARK   11  A    between atoms: N1_18  and  O2_19
REMARK   12  A    between atoms: C18_21  and  C19_22
REMARK                            x       y       z     vdW  Elec       q    Type
REMARK                         _______ _______ _______ _____ _____    ______ ____
ROOT
ATOM      1  C8  UNL     1      17.547  -8.316   0.822  0.00  0.00    +0.000 C 
ATOM      2  C9  UNL     1      16.334  -7.381   0.679  0.00  0.00    +0.000 C 
ATOM      3  C10 UNL     1      16.403  -6.461  -0.532  0.00  0.00    +0.000 C 
ATOM      4  C11 UNL     1      16.343  -6.588   1.985  0.00  0.00    +0.000 C 
ATOM      5  C12 UNL     1      16.725  -7.608   3.050  0.00  0.00    +0.000 C 
ATOM      6  C13 UNL     1      17.552  -8.691   2.331  0.00  0.00    +0.000 C 
ENDROOT
BRANCH   6   7
ATOM      7  C14 UNL     1      18.927  -8.932   2.923  0.00  0.00    +0.000 C 
ATOM      8  C15 UNL     1      19.960  -7.991   3.022  0.00  0.00    +0.000 C 
ATOM      9  C17 UNL     1      21.219  -8.345   3.523  0.00  0.00    +0.000 C 
ATOM     10  C18 UNL     1      21.429  -9.650   3.929  0.00  0.00    +0.000 C 
ATOM     11  C19 UNL     1      22.766 -10.076   4.450  0.00  0.00    +0.000 C 
ATOM     12  N2  UNL     1      20.456 -10.580   3.875  0.00  0.00    +0.000 NA
ATOM     13  C20 UNL     1      19.252 -10.208   3.379  0.00  0.00    +0.000 C 
ATOM     14  F1  UNL     1      18.318 -11.171   3.338  0.00  0.00    +0.000 F 
BRANCH   8  15
ATOM     15  C16 UNL     1      19.773  -6.577   2.654  0.00  0.00    +0.000 C 
ATOM     16  N1  UNL     1      20.136  -5.999   1.547  0.00  0.00    +0.000 NA
BRANCH  16  17
ATOM     17  O2  UNL     1      20.731  -6.903   0.659  0.00  0.00    +0.000 OA
ATOM     18  H   UNL     1      21.210  -6.586  -0.081  0.00  0.00    +0.000 HD
ENDBRANCH  16  17
ENDBRANCH   8  15
ENDBRANCH   6   7
BRANCH   1  19
ATOM     19  C7  UNL     1      17.397  -9.545  -0.071  0.00  0.00    +0.000 C 
ATOM     20  O1  UNL     1      17.939  -9.605  -1.179  0.00  0.00    +0.000 OA
BRANCH  19  21
ATOM     21  C6  UNL     1      16.644 -10.751   0.474  0.00  0.00    +0.000 C 
BRANCH  21  22
ATOM     22  C3  UNL     1      15.174 -10.869   0.031  0.00  0.00    +0.000 C 
BRANCH  22  24
ATOM     23  C1  UNL     1      13.527 -12.706  -0.788  0.00  0.00    +0.000 C 
ATOM     24  C2  UNL     1      14.907 -12.072  -0.905  0.00  0.00    +0.000 C 
ENDBRANCH  22  24
BRANCH  22  25
ATOM     25  C4  UNL     1      14.220 -10.907   1.245  0.00  0.00    +0.000 C 
ATOM     26  C5  UNL     1      13.636  -9.544   1.608  0.00  0.00    +0.000 C 
ENDBRANCH  22  25
ENDBRANCH  21  22
ENDBRANCH  19  21
ENDBRANCH   1  19
TORSDOF 8
ENDMDL
MODEL 8
REMARK VINA RESULT:    -5.850      2.844      5.144
REMARK INTER + INTRA:         -10.455
REMARK INTER:                  -8.837
REMARK INTRA:                  -1.617
REMARK UNBOUND:                -2.040
REMARK  Name = laboratorio_evolutivo\Gen5_Mutante_8.pdb
REMARK  12 active torsions:
REMARK  status: ('A' for Active; 'I' for Inactive)
REMARK    1  A    between atoms: C1_1  and  C2_2
REMARK    2  A    between atoms: C2_2  and  C3_3
REMARK    3  A    between atoms: C3_3  and  C4_4
REMARK    4  A    between atoms: C3_3  and  C6_6
REMARK    5  A    between atoms: C4_4  and  C5_5
REMARK    6  A    between atoms: C6_6  and  C7_7
REMARK    7  A    between atoms: C7_7  and  C8_9
REMARK    8  A    between atoms: C9_10  and  C10_11
REMARK    9  A    between atoms: C13_14  and  C14_15
REMARK   10  A    between atoms: C15_16  and  C16_17
REMARK   11  A    between atoms: N1_18  and  O2_19
REMARK   12  A    between atoms: C18_21  and  C19_22
REMARK                            x       y       z     vdW  Elec       q    Type
REMARK                         _______ _______ _______ _____ _____    ______ ____
ROOT
ATOM      1  C8  UNL     1       0.377   0.588  18.492  0.00  0.00    +0.000 C 
ATOM      2  C9  UNL     1       1.030   1.914  18.914  0.00  0.00    +0.000 C 
ATOM      3  C10 UNL     1       0.048   3.069  19.053  0.00  0.00    +0.000 C 
ATOM      4  C11 UNL     1       2.048   2.177  17.806  0.00  0.00    +0.000 C 
ATOM      5  C12 UNL     1       2.635   0.807  17.491  0.00  0.00    +0.000 C 
ATOM      6  C13 UNL     1       1.550  -0.222  17.867  0.00  0.00    +0.000 C 
ENDROOT
BRANCH   6   7
ATOM      7  C14 UNL     1       1.150  -1.157  16.743  0.00  0.00    +0.000 C 
ATOM      8  C15 UNL     1       1.314  -2.548  16.727  0.00  0.00    +0.000 C 
ATOM      9  C17 UNL     1       0.973  -3.307  15.601  0.00  0.00    +0.000 C 
ATOM     10  C18 UNL     1       0.461  -2.657  14.493  0.00  0.00    +0.000 C 
ATOM     11  C19 UNL     1       0.104  -3.427  13.259  0.00  0.00    +0.000 C 
ATOM     12  N2  UNL     1       0.263  -1.324  14.475  0.00  0.00    +0.000 NA
ATOM     13  C20 UNL     1       0.609  -0.618  15.577  0.00  0.00    +0.000 C 
ATOM     14  F1  UNL     1       0.401   0.706  15.507  0.00  0.00    +0.000 F 
BRANCH   8  15
ATOM     15  C16 UNL     1       1.804  -3.295  17.899  0.00  0.00    +0.000 C 
ATOM     16  N1  UNL     1       3.027  -3.668  18.136  0.00  0.00    +0.000 NA
BRANCH  16  17
ATOM     17  O2  UNL     1       3.905  -3.243  17.132  0.00  0.00    +0.000 OA
ATOM     18  H   UNL     1       4.810  -3.480  17.170  0.00  0.00    +0.000 HD
ENDBRANCH  16  17
ENDBRANCH   8  15
ENDBRANCH   6   7
BRANCH   1  19
ATOM     19  C7  UNL     1      -0.232  -0.128  19.695  0.00  0.00    +0.000 C 
ATOM     20  O1  UNL     1      -1.135  -0.959  19.558  0.00  0.00    +0.000 OA
BRANCH  19  21
ATOM     21  C6  UNL     1       0.367   0.126  21.071  0.00  0.00    +0.000 C 
BRANCH  21  22
ATOM     22  C3  UNL     1       1.811  -0.370  21.265  0.00  0.00    +0.000 C 
BRANCH  22  24
ATOM     23  C1  UNL     1       3.630   1.279  22.123  0.00  0.00    +0.000 C 
ATOM     24  C2  UNL     1       2.531   0.284  22.470  0.00  0.00    +0.000 C 
ENDBRANCH  22  24
BRANCH  22  25
ATOM     25  C4  UNL     1       1.870  -1.910  21.373  0.00  0.00    +0.000 C 
ATOM     26  C5  UNL     1       2.634  -2.410  22.596  0.00  0.00    +0.000 C 
ENDBRANCH  22  25
ENDBRANCH  21  22
ENDBRANCH  19  21
ENDBRANCH   1  19
TORSDOF 8
ENDMDL
MODEL 9
REMARK VINA RESULT:    -5.828      2.307      3.352
REMARK INTER + INTRA:         -10.423
REMARK INTER:                  -8.752
REMARK INTRA:                  -1.671
REMARK UNBOUND:                -2.040
REMARK  Name = laboratorio_evolutivo\Gen5_Mutante_8.pdb
REMARK  12 active torsions:
REMARK  status: ('A' for Active; 'I' for Inactive)
REMARK    1  A    between atoms: C1_1  and  C2_2
REMARK    2  A    between atoms: C2_2  and  C3_3
REMARK    3  A    between atoms: C3_3  and  C4_4
REMARK    4  A    between atoms: C3_3  and  C6_6
REMARK    5  A    between atoms: C4_4  and  C5_5
REMARK    6  A    between atoms: C6_6  and  C7_7
REMARK    7  A    between atoms: C7_7  and  C8_9
REMARK    8  A    between atoms: C9_10  and  C10_11
REMARK    9  A    between atoms: C13_14  and  C14_15
REMARK   10  A    between atoms: C15_16  and  C16_17
REMARK   11  A    between atoms: N1_18  and  O2_19
REMARK   12  A    between atoms: C18_21  and  C19_22
REMARK                            x       y       z     vdW  Elec       q    Type
REMARK                         _______ _______ _______ _____ _____    ______ ____
ROOT
ATOM      1  C8  UNL     1       2.184   0.587  20.327  0.00  0.00    +0.000 C 
ATOM      2  C9  UNL     1       2.261   0.993  21.808  0.00  0.00    +0.000 C 
ATOM      3  C10 UNL     1       3.645   1.445  22.254  0.00  0.00    +0.000 C 
ATOM      4  C11 UNL     1       1.822  -0.270  22.546  0.00  0.00    +0.000 C 
ATOM      5  C12 UNL     1       0.686  -0.833  21.700  0.00  0.00    +0.000 C 
ATOM      6  C13 UNL     1       0.939  -0.343  20.260  0.00  0.00    +0.000 C 
ENDROOT
BRANCH   6   7
ATOM      7  C14 UNL     1       1.024  -1.447  19.224  0.00  0.00    +0.000 C 
ATOM      8  C15 UNL     1       0.335  -1.490  18.005  0.00  0.00    +0.000 C 
ATOM      9  C17 UNL     1       0.433  -2.598  17.154  0.00  0.00    +0.000 C 
ATOM     10  C18 UNL     1       1.234  -3.659  17.536  0.00  0.00    +0.000 C 
ATOM     11  C19 UNL     1       1.351  -4.872  16.667  0.00  0.00    +0.000 C 
ATOM     12  N2  UNL     1       1.934  -3.647  18.688  0.00  0.00    +0.000 NA
ATOM     13  C20 UNL     1       1.812  -2.565  19.491  0.00  0.00    +0.000 C 
ATOM     14  F1  UNL     1       2.521  -2.604  20.630  0.00  0.00    +0.000 F 
BRANCH   8  15
ATOM     15  C16 UNL     1      -0.488  -0.365  17.527  0.00  0.00    +0.000 C 
ATOM     16  N1  UNL     1      -0.109   0.611  16.754  0.00  0.00    +0.000 NA
BRANCH  16  17
ATOM     17  O2  UNL     1       1.227   0.476  16.362  0.00  0.00    +0.000 OA
ATOM     18  H   UNL     1       1.481  -0.230  15.801  0.00  0.00    +0.000 HD
ENDBRANCH  16  17
ENDBRANCH   8  15
ENDBRANCH   6   7
BRANCH   1  19
ATOM     19  C7  UNL     1       2.028   1.814  19.432  0.00  0.00    +0.000 C 
ATOM     20  O1  UNL     1       2.748   1.984  18.444  0.00  0.00    +0.000 OA
BRANCH  19  21
ATOM     21  C6  UNL     1       0.890   2.783  19.720  0.00  0.00    +0.000 C 
BRANCH  21  22
ATOM     22  C3  UNL     1       1.270   4.275  19.696  0.00  0.00    +0.000 C 
BRANCH  22  24
ATOM     23  C1  UNL     1      -1.267   4.736  19.362  0.00  0.00    +0.000 C 
ATOM     24  C2  UNL     1       0.066   5.222  19.917  0.00  0.00    +0.000 C 
ENDBRANCH  22  24
BRANCH  22  25
ATOM     25  C4  UNL     1       2.395   4.588  20.708  0.00  0.00    +0.000 C 
ATOM     26  C5  UNL     1       2.899   6.027  20.636  0.00  0.00    +0.000 C 
ENDBRANCH  22  25
ENDBRANCH  21  22
ENDBRANCH  19  21
ENDBRANCH   1  19
TORSDOF 8
ENDMDL
