MODEL 1
REMARK VINA RESULT:    -6.273      0.000      0.000
REMARK INTER + INTRA:         -10.223
REMARK INTER:                  -8.657
REMARK INTRA:                  -1.567
REMARK UNBOUND:                -1.567
REMARK  Name = laboratorio_evolutivo\Gen5_Mutante_1.pdb
REMARK  11 active torsions:
REMARK  status: ('A' for Active; 'I' for Inactive)
REMARK    1  A    between atoms: C1_1  and  C2_2
REMARK    2  A    between atoms: C2_2  and  C3_3
REMARK    3  A    between atoms: C3_3  and  C4_4
REMARK    4  A    between atoms: C3_3  and  C5_5
REMARK    5  A    between atoms: C5_5  and  C6_6
REMARK    6  A    between atoms: C6_6  and  C7_8
REMARK    7  A    between atoms: C8_9  and  C9_10
REMARK    8  A    between atoms: C12_13  and  C13_14
REMARK    9  A    between atoms: C15_17  and  C16_18
REMARK   10  A    between atoms: C18_20  and  C19_21
REMARK   11  A    between atoms: N2_22  and  O2_23
REMARK                            x       y       z     vdW  Elec       q    Type
REMARK                         _______ _______ _______ _____ _____    ______ ____
ROOT
ATOM      1  C7  UNL     1       1.983   1.742  20.843  0.00  0.00    +0.000 C 
ATOM      2  C8  UNL     1       3.390   1.560  21.432  0.00  0.00    +0.000 C 
ATOM      3  C9  UNL     1       4.109   2.875  21.709  0.00  0.00    +0.000 C 
ATOM      4  C10 UNL     1       3.122   0.778  22.717  0.00  0.00    +0.000 C 
ATOM      5  C11 UNL     1       2.046  -0.229  22.334  0.00  0.00    +0.000 C 
ATOM      6  C12 UNL     1       1.227   0.437  21.211  0.00  0.00    +0.000 C 
ENDROOT
BRANCH   6   7
ATOM      7  C13 UNL     1       0.813  -0.510  20.105  0.00  0.00    +0.000 C 
ATOM      8  C14 UNL     1       1.746  -1.451  19.667  0.00  0.00    +0.000 C 
ATOM      9  N1  UNL     1       1.516  -2.412  18.743  0.00  0.00    +0.000 NA
ATOM     10  C15 UNL     1       0.286  -2.471  18.192  0.00  0.00    +0.000 C 
ATOM     11  C16 UNL     1       0.027  -3.549  17.183  0.00  0.00    +0.000 C 
ATOM     12  C17 UNL     1      -0.714  -1.575  18.529  0.00  0.00    +0.000 C 
ATOM     13  C18 UNL     1      -0.441  -0.590  19.486  0.00  0.00    +0.000 C 
BRANCH  13  14
ATOM     14  C19 UNL     1      -1.532   0.364  19.743  0.00  0.00    +0.000 C 
ATOM     15  N2  UNL     1      -2.514   0.215  20.579  0.00  0.00    +0.000 NA
BRANCH  15  16
ATOM     16  O2  UNL     1      -2.403  -0.983  21.298  0.00  0.00    +0.000 OA
ATOM     17  H   UNL     1      -3.074  -1.634  21.230  0.00  0.00    +0.000 HD
ENDBRANCH  15  16
ENDBRANCH  13  14
ENDBRANCH   6   7
BRANCH   1  18
ATOM     18  C6  UNL     1       1.954   2.169  19.375  0.00  0.00    +0.000 C 
ATOM     19  O1  UNL     1       2.717   1.690  18.534  0.00  0.00    +0.000 OA
BRANCH  18  20
ATOM     20  C5  UNL     1       0.959   3.256  18.992  0.00  0.00    +0.000 C 
BRANCH  20  21
ATOM     21  C3  UNL     1       0.996   4.451  19.957  0.00  0.00    +0.000 C 
ATOM     22  C4  UNL     1      -0.363   5.165  19.986  0.00  0.00    +0.000 C 
BRANCH  21  24
ATOM     23  C1  UNL     1       2.693   6.201  20.761  0.00  0.00    +0.000 C 
ATOM     24  C2  UNL     1       2.091   5.466  19.572  0.00  0.00    +0.000 C 
ENDBRANCH  21  24
ENDBRANCH  20  21
ENDBRANCH  18  20
ENDBRANCH   1  18
TORSDOF 7
ENDMDL
MODEL 2
REMARK VINA RESULT:    -6.058      1.787      2.835
REMARK INTER + INTRA:          -9.927
REMARK INTER:                  -8.072
REMARK INTRA:                  -1.855
REMARK UNBOUND:                -1.567
REMARK  Name = laboratorio_evolutivo\Gen5_Mutante_1.pdb
REMARK  11 active torsions:
REMARK  status: ('A' for Active; 'I' for Inactive)
REMARK    1  A    between atoms: C1_1  and  C2_2
REMARK    2  A    between atoms: C2_2  and  C3_3
REMARK    3  A    between atoms: C3_3  and  C4_4
REMARK    4  A    between atoms: C3_3  and  C5_5
REMARK    5  A    between atoms: C5_5  and  C6_6
REMARK    6  A    between atoms: C6_6  and  C7_8
REMARK    7  A    between atoms: C8_9  and  C9_10
REMARK    8  A    between atoms: C12_13  and  C13_14
REMARK    9  A    between atoms: C15_17  and  C16_18
REMARK   10  A    between atoms: C18_20  and  C19_21
REMARK   11  A    between atoms: N2_22  and  O2_23
REMARK                            x       y       z     vdW  Elec       q    Type
REMARK                         _______ _______ _______ _____ _____    ______ ____
ROOT
ATOM      1  C7  UNL     1       1.692   1.142  20.582  0.00  0.00    +0.000 C 
ATOM      2  C8  UNL     1       3.064   1.252  21.265  0.00  0.00    +0.000 C 
ATOM      3  C9  UNL     1       3.635   2.665  21.256  0.00  0.00    +0.000 C 
ATOM      4  C10 UNL     1       2.778   0.764  22.683  0.00  0.00    +0.000 C 
ATOM      5  C11 UNL     1       1.830  -0.414  22.499  0.00  0.00    +0.000 C 
ATOM      6  C12 UNL     1       1.035  -0.117  21.211  0.00  0.00    +0.000 C 
ENDROOT
BRANCH   6   7
ATOM      7  C13 UNL     1       0.792  -1.332  20.342  0.00  0.00    +0.000 C 
ATOM      8  C14 UNL     1       1.874  -2.174  20.078  0.00  0.00    +0.000 C 
ATOM      9  N1  UNL     1       1.813  -3.333  19.384  0.00  0.00    +0.000 NA
ATOM     10  C15 UNL     1       0.612  -3.713  18.900  0.00  0.00    +0.000 C 
ATOM     11  C16 UNL     1       0.544  -5.008  18.148  0.00  0.00    +0.000 C 
ATOM     12  C17 UNL     1      -0.527  -2.947  19.077  0.00  0.00    +0.000 C 
ATOM     13  C18 UNL     1      -0.429  -1.751  19.797  0.00  0.00    +0.000 C 
BRANCH  13  14
ATOM     14  C19 UNL     1      -1.667  -0.961  19.887  0.00  0.00    +0.000 C 
ATOM     15  N2  UNL     1      -2.575  -1.040  20.812  0.00  0.00    +0.000 NA
BRANCH  15  16
ATOM     16  O2  UNL     1      -2.219  -1.961  21.806  0.00  0.00    +0.000 OA
ATOM     17  H   UNL     1      -1.980  -1.660  22.661  0.00  0.00    +0.000 HD
ENDBRANCH  15  16
ENDBRANCH  13  14
ENDBRANCH   6   7
BRANCH   1  18
ATOM     18  C6  UNL     1       1.729   1.213  19.055  0.00  0.00    +0.000 C 
ATOM     19  O1  UNL     1       2.714   0.862  18.402  0.00  0.00    +0.000 OA
BRANCH  18  20
ATOM     20  C5  UNL     1       0.499   1.781  18.360  0.00  0.00    +0.000 C 
BRANCH  20  21
ATOM     21  C3  UNL     1       0.469   1.451  16.859  0.00  0.00    +0.000 C 
ATOM     22  C4  UNL     1      -0.201   2.584  16.069  0.00  0.00    +0.000 C 
BRANCH  21  24
ATOM     23  C1  UNL     1       0.625  -0.985  16.065  0.00  0.00    +0.000 C 
ATOM     24  C2  UNL     1      -0.275   0.130  16.577  0.00  0.00    +0.000 C 
ENDBRANCH  21  24
ENDBRANCH  20  21
ENDBRANCH  18  20
ENDBRANCH   1  18
TORSDOF 7
ENDMDL
MODEL 3
REMARK VINA RESULT:    -5.947     24.486     27.179
REMARK INTER + INTRA:          -9.773
REMARK INTER:                  -8.132
REMARK INTRA:                  -1.641
REMARK UNBOUND:                -1.567
REMARK  Name = laboratorio_evolutivo\Gen5_Mutante_1.pdb
REMARK  11 active torsions:
REMARK  status: ('A' for Active; 'I' for Inactive)
REMARK    1  A    between atoms: C1_1  and  C2_2
REMARK    2  A    between atoms: C2_2  and  C3_3
REMARK    3  A    between atoms: C3_3  and  C4_4
REMARK    4  A    between atoms: C3_3  and  C5_5
REMARK    5  A    between atoms: C5_5  and  C6_6
REMARK    6  A    between atoms: C6_6  and  C7_8
REMARK    7  A    between atoms: C8_9  and  C9_10
REMARK    8  A    between atoms: C12_13  and  C13_14
REMARK    9  A    between atoms: C15_17  and  C16_18
REMARK   10  A    between atoms: C18_20  and  C19_21
REMARK   11  A    between atoms: N2_22  and  O2_23
REMARK                            x       y       z     vdW  Elec       q    Type
REMARK                         _______ _______ _______ _____ _____    ______ ____
ROOT
ATOM      1  C7  UNL     1      19.081  -8.959   2.802  0.00  0.00    +0.000 C 
ATOM      2  C8  UNL     1      19.957  -8.345   3.904  0.00  0.00    +0.000 C 
ATOM      3  C9  UNL     1      20.611  -9.383   4.808  0.00  0.00    +0.000 C 
ATOM      4  C10 UNL     1      20.992  -7.549   3.112  0.00  0.00    +0.000 C 
ATOM      5  C11 UNL     1      20.199  -6.913   1.977  0.00  0.00    +0.000 C 
ATOM      6  C12 UNL     1      19.034  -7.880   1.686  0.00  0.00    +0.000 C 
ENDROOT
BRANCH   6   7
ATOM      7  C13 UNL     1      17.721  -7.190   1.384  0.00  0.00    +0.000 C 
ATOM      8  C14 UNL     1      17.455  -5.980   2.029  0.00  0.00    +0.000 C 
ATOM      9  N1  UNL     1      16.367  -5.204   1.819  0.00  0.00    +0.000 NA
ATOM     10  C15 UNL     1      15.459  -5.626   0.915  0.00  0.00    +0.000 C 
ATOM     11  C16 UNL     1      14.265  -4.753   0.670  0.00  0.00    +0.000 C 
ATOM     12  C17 UNL     1      15.604  -6.821   0.232  0.00  0.00    +0.000 C 
ATOM     13  C18 UNL     1      16.738  -7.603   0.475  0.00  0.00    +0.000 C 
BRANCH  13  14
ATOM     14  C19 UNL     1      16.789  -8.888  -0.241  0.00  0.00    +0.000 C 
ATOM     15  N2  UNL     1      17.360  -9.120  -1.383  0.00  0.00    +0.000 NA
BRANCH  15  16
ATOM     16  O2  UNL     1      18.012  -7.981  -1.876  0.00  0.00    +0.000 OA
ATOM     17  H   UNL     1      18.477  -7.416  -1.289  0.00  0.00    +0.000 HD
ENDBRANCH  15  16
ENDBRANCH  13  14
ENDBRANCH   6   7
BRANCH   1  18
ATOM     18  C6  UNL     1      17.740  -9.513   3.284  0.00  0.00    +0.000 C 
ATOM     19  O1  UNL     1      16.978  -8.864   4.003  0.00  0.00    +0.000 OA
BRANCH  18  20
ATOM     20  C5  UNL     1      17.392 -10.936   2.870  0.00  0.00    +0.000 C 
BRANCH  20  21
ATOM     21  C3  UNL     1      18.635 -11.758   2.493  0.00  0.00    +0.000 C 
ATOM     22  C4  UNL     1      18.547 -12.237   1.037  0.00  0.00    +0.000 C 
BRANCH  21  24
ATOM     23  C1  UNL     1      20.134 -12.983   4.179  0.00  0.00    +0.000 C 
ATOM     24  C2  UNL     1      18.817 -12.979   3.416  0.00  0.00    +0.000 C 
ENDBRANCH  21  24
ENDBRANCH  20  21
ENDBRANCH  18  20
ENDBRANCH   1  18
TORSDOF 7
ENDMDL
MODEL 4
REMARK VINA RESULT:    -5.902     24.532     27.106
REMARK INTER + INTRA:          -9.712
REMARK INTER:                  -7.923
REMARK INTRA:                  -1.789
REMARK UNBOUND:                -1.567
REMARK  Name = laboratorio_evolutivo\Gen5_Mutante_1.pdb
REMARK  11 active torsions:
REMARK  status: ('A' for Active; 'I' for Inactive)
REMARK    1  A    between atoms: C1_1  and  C2_2
REMARK    2  A    between atoms: C2_2  and  C3_3
REMARK    3  A    between atoms: C3_3  and  C4_4
REMARK    4  A    between atoms: C3_3  and  C5_5
REMARK    5  A    between atoms: C5_5  and  C6_6
REMARK    6  A    between atoms: C6_6  and  C7_8
REMARK    7  A    between atoms: C8_9  and  C9_10
REMARK    8  A    between atoms: C12_13  and  C13_14
REMARK    9  A    between atoms: C15_17  and  C16_18
REMARK   10  A    between atoms: C18_20  and  C19_21
REMARK   11  A    between atoms: N2_22  and  O2_23
REMARK                            x       y       z     vdW  Elec       q    Type
REMARK                         _______ _______ _______ _____ _____    ______ ____
ROOT
ATOM      1  C7  UNL     1      18.514  -7.353   1.508  0.00  0.00    +0.000 C 
ATOM      2  C8  UNL     1      19.184  -7.576   2.872  0.00  0.00    +0.000 C 
ATOM      3  C9  UNL     1      19.485  -9.040   3.169  0.00  0.00    +0.000 C 
ATOM      4  C10 UNL     1      20.460  -6.745   2.763  0.00  0.00    +0.000 C 
ATOM      5  C11 UNL     1      20.029  -5.474   2.042  0.00  0.00    +0.000 C 
ATOM      6  C12 UNL     1      18.853  -5.884   1.134  0.00  0.00    +0.000 C 
ENDROOT
BRANCH   6   7
ATOM      7  C13 UNL     1      17.736  -4.864   1.072  0.00  0.00    +0.000 C 
ATOM      8  C14 UNL     1      17.261  -4.341   2.276  0.00  0.00    +0.000 C 
ATOM      9  N1  UNL     1      16.322  -3.375   2.394  0.00  0.00    +0.000 NA
ATOM     10  C15 UNL     1      15.795  -2.870   1.259  0.00  0.00    +0.000 C 
ATOM     11  C16 UNL     1      14.770  -1.784   1.393  0.00  0.00    +0.000 C 
ATOM     12  C17 UNL     1      16.171  -3.327   0.008  0.00  0.00    +0.000 C 
ATOM     13  C18 UNL     1      17.141  -4.331  -0.079  0.00  0.00    +0.000 C 
BRANCH  13  14
ATOM     14  C19 UNL     1      17.440  -4.809  -1.438  0.00  0.00    +0.000 C 
ATOM     15  N2  UNL     1      18.401  -4.404  -2.212  0.00  0.00    +0.000 NA
BRANCH  15  16
ATOM     16  O2  UNL     1      19.210  -3.454  -1.575  0.00  0.00    +0.000 OA
ATOM     17  H   UNL     1      19.942  -3.731  -1.059  0.00  0.00    +0.000 HD
ENDBRANCH  15  16
ENDBRANCH  13  14
ENDBRANCH   6   7
BRANCH   1  18
ATOM     18  C6  UNL     1      17.041  -7.761   1.443  0.00  0.00    +0.000 C 
ATOM     19  O1  UNL     1      16.298  -7.703   2.424  0.00  0.00    +0.000 OA
BRANCH  18  20
ATOM     20  C5  UNL     1      16.528  -8.288   0.110  0.00  0.00    +0.000 C 
BRANCH  20  21
ATOM     21  C3  UNL     1      17.639  -8.940  -0.729  0.00  0.00    +0.000 C 
ATOM     22  C4  UNL     1      17.640  -8.377  -2.157  0.00  0.00    +0.000 C 
BRANCH  21  24
ATOM     23  C1  UNL     1      17.963 -11.190   0.464  0.00  0.00    +0.000 C 
ATOM     24  C2  UNL     1      17.485 -10.473  -0.791  0.00  0.00    +0.000 C 
ENDBRANCH  21  24
ENDBRANCH  20  21
ENDBRANCH  18  20
ENDBRANCH   1  18
TORSDOF 7
ENDMDL
MODEL 5
REMARK VINA RESULT:    -5.875     23.790     26.315
REMARK INTER + INTRA:          -9.674
REMARK INTER:                  -8.023
REMARK INTRA:                  -1.651
REMARK UNBOUND:                -1.567
REMARK  Name = laboratorio_evolutivo\Gen5_Mutante_1.pdb
REMARK  11 active torsions:
REMARK  status: ('A' for Active; 'I' for Inactive)
REMARK    1  A    between atoms: C1_1  and  C2_2
REMARK    2  A    between atoms: C2_2  and  C3_3
REMARK    3  A    between atoms: C3_3  and  C4_4
REMARK    4  A    between atoms: C3_3  and  C5_5
REMARK    5  A    between atoms: C5_5  and  C6_6
REMARK    6  A    between atoms: C6_6  and  C7_8
REMARK    7  A    between atoms: C8_9  and  C9_10
REMARK    8  A    between atoms: C12_13  and  C13_14
REMARK    9  A    between atoms: C15_17  and  C16_18
REMARK   10  A    between atoms: C18_20  and  C19_21
REMARK   11  A    between atoms: N2_22  and  O2_23
REMARK                            x       y       z     vdW  Elec       q    Type
REMARK                         _______ _______ _______ _____ _____    ______ ____
ROOT
ATOM      1  C7  UNL     1      18.594  -7.343   1.290  0.00  0.00    +0.000 C 
ATOM      2  C8  UNL     1      19.113  -7.711   2.688  0.00  0.00    +0.000 C 
ATOM      3  C9  UNL     1      19.440  -9.191   2.844  0.00  0.00    +0.000 C 
ATOM      4  C10 UNL     1      20.357  -6.837   2.829  0.00  0.00    +0.000 C 
ATOM      5  C11 UNL     1      19.957  -5.500   2.216  0.00  0.00    +0.000 C 
ATOM      6  C12 UNL     1      18.911  -5.831   1.134  0.00  0.00    +0.000 C 
ENDROOT
BRANCH   6   7
ATOM      7  C13 UNL     1      17.766  -4.843   1.060  0.00  0.00    +0.000 C 
ATOM      8  C14 UNL     1      17.276  -4.320   2.259  0.00  0.00    +0.000 C 
ATOM      9  N1  UNL     1      16.311  -3.378   2.365  0.00  0.00    +0.000 NA
ATOM     10  C15 UNL     1      15.770  -2.901   1.226  0.00  0.00    +0.000 C 
ATOM     11  C16 UNL     1      14.716  -1.842   1.347  0.00  0.00    +0.000 C 
ATOM     12  C17 UNL     1      16.159  -3.361  -0.021  0.00  0.00    +0.000 C 
ATOM     13  C18 UNL     1      17.157  -4.339  -0.096  0.00  0.00    +0.000 C 
BRANCH  13  14
ATOM     14  C19 UNL     1      17.469  -4.824  -1.450  0.00  0.00    +0.000 C 
ATOM     15  N2  UNL     1      18.421  -4.404  -2.227  0.00  0.00    +0.000 NA
BRANCH  15  16
ATOM     16  O2  UNL     1      19.206  -3.427  -1.599  0.00  0.00    +0.000 OA
ATOM     17  H   UNL     1      19.256  -2.563  -1.959  0.00  0.00    +0.000 HD
ENDBRANCH  15  16
ENDBRANCH  13  14
ENDBRANCH   6   7
BRANCH   1  18
ATOM     18  C6  UNL     1      17.157  -7.781   1.004  0.00  0.00    +0.000 C 
ATOM     19  O1  UNL     1      16.750  -8.002  -0.139  0.00  0.00    +0.000 OA
BRANCH  18  20
ATOM     20  C5  UNL     1      16.219  -7.896   2.198  0.00  0.00    +0.000 C 
BRANCH  20  21
ATOM     21  C3  UNL     1      14.802  -7.392   1.881  0.00  0.00    +0.000 C 
ATOM     22  C4  UNL     1      14.328  -6.401   2.954  0.00  0.00    +0.000 C 
BRANCH  21  24
ATOM     23  C1  UNL     1      14.418  -9.929   1.926  0.00  0.00    +0.000 C 
ATOM     24  C2  UNL     1      13.790  -8.550   1.781  0.00  0.00    +0.000 C 
ENDBRANCH  21  24
ENDBRANCH  20  21
ENDBRANCH  18  20
ENDBRANCH   1  18
TORSDOF 7
ENDMDL
MODEL 6
REMARK VINA RESULT:    -5.852      2.343      4.103
REMARK INTER + INTRA:          -9.642
REMARK INTER:                  -7.987
REMARK INTRA:                  -1.655
REMARK UNBOUND:                -1.567
REMARK  Name = laboratorio_evolutivo\Gen5_Mutante_1.pdb
REMARK  11 active torsions:
REMARK  status: ('A' for Active; 'I' for Inactive)
REMARK    1  A    between atoms: C1_1  and  C2_2
REMARK    2  A    between atoms: C2_2  and  C3_3
REMARK    3  A    between atoms: C3_3  and  C4_4
REMARK    4  A    between atoms: C3_3  and  C5_5
REMARK    5  A    between atoms: C5_5  and  C6_6
REMARK    6  A    between atoms: C6_6  and  C7_8
REMARK    7  A    between atoms: C8_9  and  C9_10
REMARK    8  A    between atoms: C12_13  and  C13_14
REMARK    9  A    between atoms: C15_17  and  C16_18
REMARK   10  A    between atoms: C18_20  and  C19_21
REMARK   11  A    between atoms: N2_22  and  O2_23
REMARK                            x       y       z     vdW  Elec       q    Type
REMARK                         _______ _______ _______ _____ _____    ______ ____
ROOT
ATOM      1  C7  UNL     1      -0.081   3.167  19.243  0.00  0.00    +0.000 C 
ATOM      2  C8  UNL     1      -0.964   3.932  20.240  0.00  0.00    +0.000 C 
ATOM      3  C9  UNL     1      -0.984   5.438  20.005  0.00  0.00    +0.000 C 
ATOM      4  C10 UNL     1      -2.341   3.306  20.025  0.00  0.00    +0.000 C 
ATOM      5  C11 UNL     1      -2.062   1.818  19.853  0.00  0.00    +0.000 C 
ATOM      6  C12 UNL     1      -0.654   1.724  19.232  0.00  0.00    +0.000 C 
ENDROOT
BRANCH   6   7
ATOM      7  C13 UNL     1       0.189   0.593  19.782  0.00  0.00    +0.000 C 
ATOM      8  C14 UNL     1       0.208   0.405  21.165  0.00  0.00    +0.000 C 
ATOM      9  N1  UNL     1       0.848  -0.596  21.811  0.00  0.00    +0.000 NA
ATOM     10  C15 UNL     1       1.528  -1.490  21.065  0.00  0.00    +0.000 C 
ATOM     11  C16 UNL     1       2.219  -2.611  21.782  0.00  0.00    +0.000 C 
ATOM     12  C17 UNL     1       1.601  -1.392  19.686  0.00  0.00    +0.000 C 
ATOM     13  C18 UNL     1       0.931  -0.342  19.049  0.00  0.00    +0.000 C 
BRANCH  13  14
ATOM     14  C19 UNL     1       1.109  -0.268  17.590  0.00  0.00    +0.000 C 
ATOM     15  N2  UNL     1       2.070   0.328  16.953  0.00  0.00    +0.000 NA
BRANCH  15  16
ATOM     16  O2  UNL     1       3.011   0.879  17.835  0.00  0.00    +0.000 OA
ATOM     17  H   UNL     1       2.851   1.715  18.227  0.00  0.00    +0.000 HD
ENDBRANCH  15  16
ENDBRANCH  13  14
ENDBRANCH   6   7
BRANCH   1  18
ATOM     18  C6  UNL     1       1.423   3.312  19.477  0.00  0.00    +0.000 C 
ATOM     19  O1  UNL     1       2.232   3.369  18.549  0.00  0.00    +0.000 OA
BRANCH  18  20
ATOM     20  C5  UNL     1       1.898   3.342  20.923  0.00  0.00    +0.000 C 
BRANCH  20  21
ATOM     21  C3  UNL     1       3.402   3.054  21.052  0.00  0.00    +0.000 C 
ATOM     22  C4  UNL     1       3.640   1.590  21.450  0.00  0.00    +0.000 C 
BRANCH  21  24
ATOM     23  C1  UNL     1       3.687   3.666  23.529  0.00  0.00    +0.000 C 
ATOM     24  C2  UNL     1       4.076   3.974  22.090  0.00  0.00    +0.000 C 
ENDBRANCH  21  24
ENDBRANCH  20  21
ENDBRANCH  18  20
ENDBRANCH   1  18
TORSDOF 7
ENDMDL
MODEL 7
REMARK VINA RESULT:    -5.774     26.386     28.692
REMARK INTER + INTRA:          -9.535
REMARK INTER:                  -7.764
REMARK INTRA:                  -1.771
REMARK UNBOUND:                -1.567
REMARK  Name = laboratorio_evolutivo\Gen5_Mutante_1.pdb
REMARK  11 active torsions:
REMARK  status: ('A' for Active; 'I' for Inactive)
REMARK    1  A    between atoms: C1_1  and  C2_2
REMARK    2  A    between atoms: C2_2  and  C3_3
REMARK    3  A    between atoms: C3_3  and  C4_4
REMARK    4  A    between atoms: C3_3  and  C5_5
REMARK    5  A    between atoms: C5_5  and  C6_6
REMARK    6  A    between atoms: C6_6  and  C7_8
REMARK    7  A    between atoms: C8_9  and  C9_10
REMARK    8  A    between atoms: C12_13  and  C13_14
REMARK    9  A    between atoms: C15_17  and  C16_18
REMARK   10  A    between atoms: C18_20  and  C19_21
REMARK   11  A    between atoms: N2_22  and  O2_23
REMARK                            x       y       z     vdW  Elec       q    Type
REMARK                         _______ _______ _______ _____ _____    ______ ____
ROOT
ATOM      1  C7  UNL     1      22.881  19.003  17.255  0.00  0.00    +0.000 C 
ATOM      2  C8  UNL     1      24.284  18.928  17.875  0.00  0.00    +0.000 C 
ATOM      3  C9  UNL     1      24.818  17.506  18.000  0.00  0.00    +0.000 C 
ATOM      4  C10 UNL     1      25.125  19.768  16.916  0.00  0.00    +0.000 C 
ATOM      5  C11 UNL     1      24.235  20.953  16.564  0.00  0.00    +0.000 C 
ATOM      6  C12 UNL     1      22.787  20.434  16.658  0.00  0.00    +0.000 C 
ENDROOT
BRANCH   6   7
ATOM      7  C13 UNL     1      21.815  21.422  17.267  0.00  0.00    +0.000 C 
ATOM      8  C14 UNL     1      22.215  22.110  18.414  0.00  0.00    +0.000 C 
ATOM      9  N1  UNL     1      21.500  23.074  19.038  0.00  0.00    +0.000 NA
ATOM     10  C15 UNL     1      20.300  23.402  18.517  0.00  0.00    +0.000 C 
ATOM     11  C16 UNL     1      19.519  24.485  19.199  0.00  0.00    +0.000 C 
ATOM     12  C17 UNL     1      19.787  22.771  17.397  0.00  0.00    +0.000 C 
ATOM     13  C18 UNL     1      20.550  21.775  16.777  0.00  0.00    +0.000 C 
BRANCH  13  14
ATOM     14  C19 UNL     1      19.911  21.106  15.633  0.00  0.00    +0.000 C 
ATOM     15  N2  UNL     1      19.063  20.124  15.680  0.00  0.00    +0.000 NA
BRANCH  15  16
ATOM     16  O2  UNL     1      18.749  19.776  17.001  0.00  0.00    +0.000 OA
ATOM     17  H   UNL     1      18.619  18.877  17.230  0.00  0.00    +0.000 HD
ENDBRANCH  15  16
ENDBRANCH  13  14
ENDBRANCH   6   7
BRANCH   1  18
ATOM     18  C6  UNL     1      21.747  18.564  18.182  0.00  0.00    +0.000 C 
ATOM     19  O1  UNL     1      20.712  18.046  17.757  0.00  0.00    +0.000 OA
BRANCH  18  20
ATOM     20  C5  UNL     1      21.927  18.833  19.669  0.00  0.00    +0.000 C 
BRANCH  20  21
ATOM     21  C3  UNL     1      20.599  18.768  20.441  0.00  0.00    +0.000 C 
ATOM     22  C4  UNL     1      20.049  20.180  20.692  0.00  0.00    +0.000 C 
BRANCH  21  24
ATOM     23  C1  UNL     1      22.196  17.687  22.136  0.00  0.00    +0.000 C 
ATOM     24  C2  UNL     1      20.756  18.041  21.791  0.00  0.00    +0.000 C 
ENDBRANCH  21  24
ENDBRANCH  20  21
ENDBRANCH  18  20
ENDBRANCH   1  18
TORSDOF 7
ENDMDL
MODEL 8
REMARK VINA RESULT:    -5.760     25.490     27.310
REMARK INTER + INTRA:          -9.516
REMARK INTER:                  -7.840
REMARK INTRA:                  -1.675
REMARK UNBOUND:                -1.567
REMARK  Name = laboratorio_evolutivo\Gen5_Mutante_1.pdb
REMARK  11 active torsions:
REMARK  status: ('A' for Active; 'I' for Inactive)
REMARK    1  A    between atoms: C1_1  and  C2_2
REMARK    2  A    between atoms: C2_2  and  C3_3
REMARK    3  A    between atoms: C3_3  and  C4_4
REMARK    4  A    between atoms: C3_3  and  C5_5
REMARK    5  A    between atoms: C5_5  and  C6_6
REMARK    6  A    between atoms: C6_6  and  C7_8
REMARK    7  A    between atoms: C8_9  and  C9_10
REMARK    8  A    between atoms: C12_13  and  C13_14
REMARK    9  A    between atoms: C15_17  and  C16_18
REMARK   10  A    between atoms: C18_20  and  C19_21
REMARK   11  A    between atoms: N2_22  and  O2_23
REMARK                            x       y       z     vdW  Elec       q    Type
REMARK                         _______ _______ _______ _____ _____    ______ ____
ROOT
ATOM      1  C7  UNL     1      19.187  -7.383   1.131  0.00  0.00    +0.000 C 
ATOM      2  C8  UNL     1      19.426  -7.124   2.626  0.00  0.00    +0.000 C 
ATOM      3  C9  UNL     1      20.059  -8.305   3.353  0.00  0.00    +0.000 C 
ATOM      4  C10 UNL     1      20.344  -5.904   2.618  0.00  0.00    +0.000 C 
ATOM      5  C11 UNL     1      19.789  -5.015   1.513  0.00  0.00    +0.000 C 
ATOM      6  C12 UNL     1      19.151  -5.970   0.485  0.00  0.00    +0.000 C 
ENDROOT
BRANCH   6   7
ATOM      7  C13 UNL     1      17.851  -5.464  -0.104  0.00  0.00    +0.000 C 
ATOM      8  C14 UNL     1      16.920  -4.890   0.763  0.00  0.00    +0.000 C 
ATOM      9  N1  UNL     1      15.748  -4.327   0.392  0.00  0.00    +0.000 NA
ATOM     10  C15 UNL     1      15.444  -4.317  -0.922  0.00  0.00    +0.000 C 
ATOM     11  C16 UNL     1      14.153  -3.674  -1.332  0.00  0.00    +0.000 C 
ATOM     12  C17 UNL     1      16.278  -4.879  -1.873  0.00  0.00    +0.000 C 
ATOM     13  C18 UNL     1      17.482  -5.457  -1.456  0.00  0.00    +0.000 C 
BRANCH  13  14
ATOM     14  C19 UNL     1      18.283  -6.090  -2.515  0.00  0.00    +0.000 C 
ATOM     15  N2  UNL     1      18.079  -7.254  -3.054  0.00  0.00    +0.000 NA
BRANCH  15  16
ATOM     16  O2  UNL     1      16.925  -7.865  -2.544  0.00  0.00    +0.000 OA
ATOM     17  H   UNL     1      16.087  -7.667  -2.914  0.00  0.00    +0.000 HD
ENDBRANCH  15  16
ENDBRANCH  13  14
ENDBRANCH   6   7
BRANCH   1  18
ATOM     18  C6  UNL     1      18.016  -8.315   0.820  0.00  0.00    +0.000 C 
ATOM     19  O1  UNL     1      17.967  -8.992  -0.209  0.00  0.00    +0.000 OA
BRANCH  18  20
ATOM     20  C5  UNL     1      16.873  -8.347   1.825  0.00  0.00    +0.000 C 
BRANCH  20  21
ATOM     21  C3  UNL     1      16.355  -9.772   2.080  0.00  0.00    +0.000 C 
ATOM     22  C4  UNL     1      14.823  -9.781   2.177  0.00  0.00    +0.000 C 
BRANCH  21  24
ATOM     23  C1  UNL     1      18.008 -11.437   3.121  0.00  0.00    +0.000 C 
ATOM     24  C2  UNL     1      16.947 -10.375   3.369  0.00  0.00    +0.000 C 
ENDBRANCH  21  24
ENDBRANCH  20  21
ENDBRANCH  18  20
ENDBRANCH   1  18
TORSDOF 7
ENDMDL
MODEL 9
REMARK VINA RESULT:    -5.735     14.995     17.488
REMARK INTER + INTRA:          -9.481
REMARK INTER:                  -7.886
REMARK INTRA:                  -1.595
REMARK UNBOUND:                -1.567
REMARK  Name = laboratorio_evolutivo\Gen5_Mutante_1.pdb
REMARK  11 active torsions:
REMARK  status: ('A' for Active; 'I' for Inactive)
REMARK    1  A    between atoms: C1_1  and  C2_2
REMARK    2  A    between atoms: C2_2  and  C3_3
REMARK    3  A    between atoms: C3_3  and  C4_4
REMARK    4  A    between atoms: C3_3  and  C5_5
REMARK    5  A    between atoms: C5_5  and  C6_6
REMARK    6  A    between atoms: C6_6  and  C7_8
REMARK    7  A    between atoms: C8_9  and  C9_10
REMARK    8  A    between atoms: C12_13  and  C13_14
REMARK    9  A    between atoms: C15_17  and  C16_18
REMARK   10  A    between atoms: C18_20  and  C19_21
REMARK   11  A    between atoms: N2_22  and  O2_23
REMARK                            x       y       z     vdW  Elec       q    Type
REMARK                         _______ _______ _______ _____ _____    ______ ____
ROOT
ATOM      1  C7  UNL     1      -5.897 -13.296  20.614  0.00  0.00    +0.000 C 
ATOM      2  C8  UNL     1      -4.404 -13.136  20.292  0.00  0.00    +0.000 C 
ATOM      3  C9  UNL     1      -4.104 -11.960  19.370  0.00  0.00    +0.000 C 
ATOM      4  C10 UNL     1      -3.777 -12.949  21.672  0.00  0.00    +0.000 C 
ATOM      5  C11 UNL     1      -4.520 -13.933  22.566  0.00  0.00    +0.000 C 
ATOM      6  C12 UNL     1      -5.932 -14.066  21.963  0.00  0.00    +0.000 C 
ENDROOT
BRANCH   6   7
ATOM      7  C13 UNL     1      -6.485 -15.476  21.991  0.00  0.00    +0.000 C 
ATOM      8  C14 UNL     1      -5.588 -16.533  21.823  0.00  0.00    +0.000 C 
ATOM      9  N1  UNL     1      -5.904 -17.846  21.894  0.00  0.00    +0.000 NA
ATOM     10  C15 UNL     1      -7.190 -18.170  22.143  0.00  0.00    +0.000 C 
ATOM     11  C16 UNL     1      -7.533 -19.626  22.241  0.00  0.00    +0.000 C 
ATOM     12  C17 UNL     1      -8.172 -17.208  22.302  0.00  0.00    +0.000 C 
ATOM     13  C18 UNL     1      -7.813 -15.858  22.220  0.00  0.00    +0.000 C 
BRANCH  13  14
ATOM     14  C19 UNL     1      -8.922 -14.898  22.335  0.00  0.00    +0.000 C 
ATOM     15  N2  UNL     1      -9.448 -14.445  23.432  0.00  0.00    +0.000 NA
BRANCH  15  16
ATOM     16  O2  UNL     1      -8.786 -14.940  24.564  0.00  0.00    +0.000 OA
ATOM     17  H   UNL     1      -7.850 -14.936  24.599  0.00  0.00    +0.000 HD
ENDBRANCH  15  16
ENDBRANCH  13  14
ENDBRANCH   6   7
BRANCH   1  18
ATOM     18  C6  UNL     1      -6.742 -13.863  19.472  0.00  0.00    +0.000 C 
ATOM     19  O1  UNL     1      -6.357 -14.800  18.770  0.00  0.00    +0.000 OA
BRANCH  18  20
ATOM     20  C5  UNL     1      -8.080 -13.189  19.202  0.00  0.00    +0.000 C 
BRANCH  20  21
ATOM     21  C3  UNL     1      -8.179 -11.801  19.856  0.00  0.00    +0.000 C 
ATOM     22  C4  UNL     1      -9.495 -11.663  20.634  0.00  0.00    +0.000 C 
BRANCH  21  24
ATOM     23  C1  UNL     1      -8.760  -9.374  19.251  0.00  0.00    +0.000 C 
ATOM     24  C2  UNL     1      -8.088 -10.668  18.814  0.00  0.00    +0.000 C 
ENDBRANCH  21  24
ENDBRANCH  20  21
ENDBRANCH  18  20
ENDBRANCH   1  18
TORSDOF 7
ENDMDL
