MODEL 1
REMARK VINA RESULT:    -9.271      0.000      0.000
REMARK INTER + INTRA:         -14.020
REMARK INTER:                 -13.335
REMARK INTRA:                  -0.685
REMARK UNBOUND:                -0.685
REMARK  Name = laboratorio_evolutivo\Gen5_Mutante_7.pdb
REMARK  13 active torsions:
REMARK  status: ('A' for Active; 'I' for Inactive)
REMARK    1  A    between atoms: C1_1  and  C2_2
REMARK    2  A    between atoms: C2_2  and  C3_3
REMARK    3  A    between atoms: C3_3  and  C4_4
REMARK    4  A    between atoms: C3_3  and  C6_6
REMARK    5  A    between atoms: C4_4  and  C5_5
REMARK    6  A    between atoms: C6_6  and  C7_7
REMARK    7  A    between atoms: C7_7  and  C8_9
REMARK    8  A    between atoms: C9_10  and  C10_11
REMARK    9  A    between atoms: C13_14  and  C14_15
REMARK   10  A    between atoms: C15_16  and  C16_17
REMARK   11  A    between atoms: N1_18  and  O2_19
REMARK   12  A    between atoms: C18_21  and  C19_22
REMARK   13  A    between atoms: C20_24  and  C21_25
REMARK                            x       y       z     vdW  Elec       q    Type
REMARK                         _______ _______ _______ _____ _____    ______ ____
ROOT
ATOM      1  C8  UNL     1       3.587  66.937  64.491  0.00  0.00    +0.000 C 
ATOM      2  C9  UNL     1       3.551  66.518  63.018  0.00  0.00    +0.000 C 
ATOM      3  C10 UNL     1       4.544  65.443  62.603  0.00  0.00    +0.000 C 
ATOM      4  C11 UNL     1       3.726  67.821  62.241  0.00  0.00    +0.000 C 
ATOM      5  C12 UNL     1       3.160  68.929  63.129  0.00  0.00    +0.000 C 
ATOM      6  C13 UNL     1       2.876  68.315  64.513  0.00  0.00    +0.000 C 
ENDROOT
BRANCH   6   7
ATOM      7  C14 UNL     1       1.449  68.195  65.047  0.00  0.00    +0.000 C 
ATOM      8  C15 UNL     1       1.277  68.102  66.452  0.00  0.00    +0.000 C 
ATOM      9  C17 UNL     1       0.028  67.938  67.048  0.00  0.00    +0.000 C 
ATOM     10  C18 UNL     1      -1.070  67.857  66.224  0.00  0.00    +0.000 C 
ATOM     11  C19 UNL     1      -2.443  67.680  66.797  0.00  0.00    +0.000 C 
ATOM     12  N2  UNL     1      -0.958  67.934  64.884  0.00  0.00    +0.000 NA
ATOM     13  C20 UNL     1       0.267  68.084  64.301  0.00  0.00    +0.000 C 
ATOM     14  C21 UNL     1       0.167  68.140  62.808  0.00  0.00    +0.000 C 
BRANCH   8  15
ATOM     15  C16 UNL     1       2.424  68.220  67.379  0.00  0.00    +0.000 C 
ATOM     16  N1  UNL     1       2.702  69.225  68.154  0.00  0.00    +0.000 NA
BRANCH  16  17
ATOM     17  O2  UNL     1       1.739  70.236  68.068  0.00  0.00    +0.000 OA
ATOM     18  H   UNL     1       1.329  70.560  68.845  0.00  0.00    +0.000 HD
ENDBRANCH  16  17
ENDBRANCH   8  15
ENDBRANCH   6   7
BRANCH   1  19
ATOM     19  C7  UNL     1       5.001  67.064  65.066  0.00  0.00    +0.000 C 
ATOM     20  O1  UNL     1       5.722  68.020  64.781  0.00  0.00    +0.000 OA
BRANCH  19  21
ATOM     21  C6  UNL     1       5.476  65.923  65.960  0.00  0.00    +0.000 C 
BRANCH  21  22
ATOM     22  C3  UNL     1       4.631  65.734  67.232  0.00  0.00    +0.000 C 
BRANCH  22  24
ATOM     23  C1  UNL     1       3.734  63.760  65.795  0.00  0.00    +0.000 C 
ATOM     24  C2  UNL     1       3.579  64.616  67.042  0.00  0.00    +0.000 C 
ENDBRANCH  22  24
BRANCH  22  25
ATOM     25  C4  UNL     1       5.437  65.569  68.542  0.00  0.00    +0.000 C 
ATOM     26  C5  UNL     1       5.049  64.409  69.448  0.00  0.00    +0.000 C 
ENDBRANCH  22  25
ENDBRANCH  21  22
ENDBRANCH  19  21
ENDBRANCH   1  19
TORSDOF 8
ENDMDL
MODEL 2
REMARK VINA RESULT:    -8.934      2.380      5.873
REMARK INTER + INTRA:         -13.537
REMARK INTER:                 -12.699
REMARK INTRA:                  -0.837
REMARK UNBOUND:                -0.685
REMARK  Name = laboratorio_evolutivo\Gen5_Mutante_7.pdb
REMARK  13 active torsions:
REMARK  status: ('A' for Active; 'I' for Inactive)
REMARK    1  A    between atoms: C1_1  and  C2_2
REMARK    2  A    between atoms: C2_2  and  C3_3
REMARK    3  A    between atoms: C3_3  and  C4_4
REMARK    4  A    between atoms: C3_3  and  C6_6
REMARK    5  A    between atoms: C4_4  and  C5_5
REMARK    6  A    between atoms: C6_6  and  C7_7
REMARK    7  A    between atoms: C7_7  and  C8_9
REMARK    8  A    between atoms: C9_10  and  C10_11
REMARK    9  A    between atoms: C13_14  and  C14_15
REMARK   10  A    between atoms: C15_16  and  C16_17
REMARK   11  A    between atoms: N1_18  and  O2_19
REMARK   12  A    between atoms: C18_21  and  C19_22
REMARK   13  A    between atoms: C20_24  and  C21_25
REMARK                            x       y       z     vdW  Elec       q    Type
REMARK                         _______ _______ _______ _____ _____    ______ ____
ROOT
ATOM      1  C8  UNL     1       2.111  67.426  65.924  0.00  0.00    +0.000 C 
ATOM      2  C9  UNL     1       0.685  67.870  66.266  0.00  0.00    +0.000 C 
ATOM      3  C10 UNL     1      -0.236  68.130  65.085  0.00  0.00    +0.000 C 
ATOM      4  C11 UNL     1       0.867  69.094  67.160  0.00  0.00    +0.000 C 
ATOM      5  C12 UNL     1       2.209  68.913  67.868  0.00  0.00    +0.000 C 
ATOM      6  C13 UNL     1       2.921  67.714  67.215  0.00  0.00    +0.000 C 
ENDROOT
BRANCH   6   7
ATOM      7  C14 UNL     1       3.190  66.430  67.999  0.00  0.00    +0.000 C 
ATOM      8  C15 UNL     1       4.429  65.775  67.786  0.00  0.00    +0.000 C 
ATOM      9  C17 UNL     1       4.762  64.573  68.407  0.00  0.00    +0.000 C 
ATOM     10  C18 UNL     1       3.835  64.009  69.252  0.00  0.00    +0.000 C 
ATOM     11  C19 UNL     1       4.125  62.717  69.952  0.00  0.00    +0.000 C 
ATOM     12  N2  UNL     1       2.641  64.590  69.483  0.00  0.00    +0.000 NA
ATOM     13  C20 UNL     1       2.313  65.762  68.866  0.00  0.00    +0.000 C 
ATOM     14  C21 UNL     1       0.944  66.229  69.255  0.00  0.00    +0.000 C 
BRANCH   8  15
ATOM     15  C16 UNL     1       5.472  66.360  66.915  0.00  0.00    +0.000 C 
ATOM     16  N1  UNL     1       5.639  66.145  65.644  0.00  0.00    +0.000 NA
BRANCH  16  17
ATOM     17  O2  UNL     1       4.660  65.294  65.122  0.00  0.00    +0.000 OA
ATOM     18  H   UNL     1       4.014  65.629  64.533  0.00  0.00    +0.000 HD
ENDBRANCH  16  17
ENDBRANCH   8  15
ENDBRANCH   6   7
BRANCH   1  19
ATOM     19  C7  UNL     1       2.727  68.173  64.737  0.00  0.00    +0.000 C 
ATOM     20  O1  UNL     1       3.435  69.166  64.907  0.00  0.00    +0.000 OA
BRANCH  19  21
ATOM     21  C6  UNL     1       2.373  67.653  63.348  0.00  0.00    +0.000 C 
BRANCH  21  22
ATOM     22  C3  UNL     1       2.753  68.614  62.207  0.00  0.00    +0.000 C 
BRANCH  22  24
ATOM     23  C1  UNL     1       5.332  68.934  62.094  0.00  0.00    +0.000 C 
ATOM     24  C2  UNL     1       4.102  68.213  61.565  0.00  0.00    +0.000 C 
ENDBRANCH  22  24
BRANCH  22  25
ATOM     25  C4  UNL     1       1.647  68.856  61.153  0.00  0.00    +0.000 C 
ATOM     26  C5  UNL     1       0.264  69.221  61.676  0.00  0.00    +0.000 C 
ENDBRANCH  22  25
ENDBRANCH  21  22
ENDBRANCH  19  21
ENDBRANCH   1  19
TORSDOF 8
ENDMDL
MODEL 3
REMARK VINA RESULT:    -8.475      6.726      9.527
REMARK INTER + INTRA:         -12.876
REMARK INTER:                 -11.948
REMARK INTRA:                  -0.928
REMARK UNBOUND:                -0.685
REMARK  Name = laboratorio_evolutivo\Gen5_Mutante_7.pdb
REMARK  13 active torsions:
REMARK  status: ('A' for Active; 'I' for Inactive)
REMARK    1  A    between atoms: C1_1  and  C2_2
REMARK    2  A    between atoms: C2_2  and  C3_3
REMARK    3  A    between atoms: C3_3  and  C4_4
REMARK    4  A    between atoms: C3_3  and  C6_6
REMARK    5  A    between atoms: C4_4  and  C5_5
REMARK    6  A    between atoms: C6_6  and  C7_7
REMARK    7  A    between atoms: C7_7  and  C8_9
REMARK    8  A    between atoms: C9_10  and  C10_11
REMARK    9  A    between atoms: C13_14  and  C14_15
REMARK   10  A    between atoms: C15_16  and  C16_17
REMARK   11  A    between atoms: N1_18  and  O2_19
REMARK   12  A    between atoms: C18_21  and  C19_22
REMARK   13  A    between atoms: C20_24  and  C21_25
REMARK                            x       y       z     vdW  Elec       q    Type
REMARK                         _______ _______ _______ _____ _____    ______ ____
ROOT
ATOM      1  C8  UNL     1       1.217  61.720  70.308  0.00  0.00    +0.000 C 
ATOM      2  C9  UNL     1       0.116  62.743  70.605  0.00  0.00    +0.000 C 
ATOM      3  C10 UNL     1      -0.267  63.665  69.458  0.00  0.00    +0.000 C 
ATOM      4  C11 UNL     1       0.614  63.499  71.835  0.00  0.00    +0.000 C 
ATOM      5  C12 UNL     1       1.509  62.527  72.604  0.00  0.00    +0.000 C 
ATOM      6  C13 UNL     1       1.728  61.293  71.709  0.00  0.00    +0.000 C 
ENDROOT
BRANCH   6   7
ATOM      7  C14 UNL     1       1.182  59.921  72.105  0.00  0.00    +0.000 C 
ATOM      8  C15 UNL     1       2.029  58.798  71.929  0.00  0.00    +0.000 C 
ATOM      9  C17 UNL     1       1.621  57.496  72.208  0.00  0.00    +0.000 C 
ATOM     10  C18 UNL     1       0.337  57.310  72.664  0.00  0.00    +0.000 C 
ATOM     11  C19 UNL     1      -0.170  55.936  72.982  0.00  0.00    +0.000 C 
ATOM     12  N2  UNL     1      -0.509  58.344  72.842  0.00  0.00    +0.000 NA
ATOM     13  C20 UNL     1      -0.110  59.617  72.558  0.00  0.00    +0.000 C 
ATOM     14  C21 UNL     1      -1.201  60.611  72.819  0.00  0.00    +0.000 C 
BRANCH   8  15
ATOM     15  C16 UNL     1       3.429  58.951  71.476  0.00  0.00    +0.000 C 
ATOM     16  N1  UNL     1       3.860  58.932  70.250  0.00  0.00    +0.000 NA
BRANCH  16  17
ATOM     17  O2  UNL     1       2.817  58.792  69.329  0.00  0.00    +0.000 OA
ATOM     18  H   UNL     1       2.611  59.494  68.744  0.00  0.00    +0.000 HD
ENDBRANCH  16  17
ENDBRANCH   8  15
ENDBRANCH   6   7
BRANCH   1  19
ATOM     19  C7  UNL     1       2.373  62.275  69.472  0.00  0.00    +0.000 C 
ATOM     20  O1  UNL     1       2.630  61.819  68.357  0.00  0.00    +0.000 OA
BRANCH  19  21
ATOM     21  C6  UNL     1       3.210  63.376  70.114  0.00  0.00    +0.000 C 
BRANCH  21  22
ATOM     22  C3  UNL     1       3.498  64.566  69.180  0.00  0.00    +0.000 C 
BRANCH  22  24
ATOM     23  C1  UNL     1       2.015  66.524  68.323  0.00  0.00    +0.000 C 
ATOM     24  C2  UNL     1       2.587  65.771  69.514  0.00  0.00    +0.000 C 
ENDBRANCH  22  24
BRANCH  22  25
ATOM     25  C4  UNL     1       4.987  64.967  69.063  0.00  0.00    +0.000 C 
ATOM     26  C5  UNL     1       5.430  65.597  67.749  0.00  0.00    +0.000 C 
ENDBRANCH  22  25
ENDBRANCH  21  22
ENDBRANCH  19  21
ENDBRANCH   1  19
TORSDOF 8
ENDMDL
MODEL 4
REMARK VINA RESULT:    -8.333      2.142      5.891
REMARK INTER + INTRA:         -12.672
REMARK INTER:                 -11.458
REMARK INTRA:                  -1.214
REMARK UNBOUND:                -0.685
REMARK  Name = laboratorio_evolutivo\Gen5_Mutante_7.pdb
REMARK  13 active torsions:
REMARK  status: ('A' for Active; 'I' for Inactive)
REMARK    1  A    between atoms: C1_1  and  C2_2
REMARK    2  A    between atoms: C2_2  and  C3_3
REMARK    3  A    between atoms: C3_3  and  C4_4
REMARK    4  A    between atoms: C3_3  and  C6_6
REMARK    5  A    between atoms: C4_4  and  C5_5
REMARK    6  A    between atoms: C6_6  and  C7_7
REMARK    7  A    between atoms: C7_7  and  C8_9
REMARK    8  A    between atoms: C9_10  and  C10_11
REMARK    9  A    between atoms: C13_14  and  C14_15
REMARK   10  A    between atoms: C15_16  and  C16_17
REMARK   11  A    between atoms: N1_18  and  O2_19
REMARK   12  A    between atoms: C18_21  and  C19_22
REMARK   13  A    between atoms: C20_24  and  C21_25
REMARK                            x       y       z     vdW  Elec       q    Type
REMARK                         _______ _______ _______ _____ _____    ______ ____
ROOT
ATOM      1  C8  UNL     1       2.706  66.671  67.486  0.00  0.00    +0.000 C 
ATOM      2  C9  UNL     1       2.455  65.659  68.608  0.00  0.00    +0.000 C 
ATOM      3  C10 UNL     1       1.244  65.924  69.490  0.00  0.00    +0.000 C 
ATOM      4  C11 UNL     1       3.764  65.618  69.392  0.00  0.00    +0.000 C 
ATOM      5  C12 UNL     1       4.870  65.972  68.398  0.00  0.00    +0.000 C 
ATOM      6  C13 UNL     1       4.192  66.452  67.101  0.00  0.00    +0.000 C 
ENDROOT
BRANCH   6   7
ATOM      7  C14 UNL     1       4.318  65.657  65.802  0.00  0.00    +0.000 C 
ATOM      8  C15 UNL     1       4.814  66.335  64.659  0.00  0.00    +0.000 C 
ATOM      9  C17 UNL     1       4.923  65.727  63.411  0.00  0.00    +0.000 C 
ATOM     10  C18 UNL     1       4.522  64.416  63.299  0.00  0.00    +0.000 C 
ATOM     11  C19 UNL     1       4.610  63.700  61.986  0.00  0.00    +0.000 C 
ATOM     12  N2  UNL     1       4.038  63.730  64.353  0.00  0.00    +0.000 NA
ATOM     13  C20 UNL     1       3.922  64.331  65.572  0.00  0.00    +0.000 C 
ATOM     14  C21 UNL     1       3.359  63.397  66.599  0.00  0.00    +0.000 C 
BRANCH   8  15
ATOM     15  C16 UNL     1       5.291  67.734  64.739  0.00  0.00    +0.000 C 
ATOM     16  N1  UNL     1       4.801  68.763  64.115  0.00  0.00    +0.000 NA
BRANCH  16  17
ATOM     17  O2  UNL     1       3.682  68.427  63.346  0.00  0.00    +0.000 OA
ATOM     18  H   UNL     1       3.086  67.770  63.648  0.00  0.00    +0.000 HD
ENDBRANCH  16  17
ENDBRANCH   8  15
ENDBRANCH   6   7
BRANCH   1  19
ATOM     19  C7  UNL     1       2.478  68.128  67.900  0.00  0.00    +0.000 C 
ATOM     20  O1  UNL     1       3.163  68.656  68.776  0.00  0.00    +0.000 OA
BRANCH  19  21
ATOM     21  C6  UNL     1       1.332  68.859  67.210  0.00  0.00    +0.000 C 
BRANCH  21  22
ATOM     22  C3  UNL     1       0.391  67.935  66.415  0.00  0.00    +0.000 C 
BRANCH  22  24
ATOM     23  C1  UNL     1      -1.886  66.952  67.198  0.00  0.00    +0.000 C 
ATOM     24  C2  UNL     1      -1.088  68.182  66.796  0.00  0.00    +0.000 C 
ENDBRANCH  22  24
BRANCH  22  25
ATOM     25  C4  UNL     1       0.613  67.928  64.884  0.00  0.00    +0.000 C 
ATOM     26  C5  UNL     1       1.085  66.621  64.263  0.00  0.00    +0.000 C 
ENDBRANCH  22  25
ENDBRANCH  21  22
ENDBRANCH  19  21
ENDBRANCH   1  19
TORSDOF 8
ENDMDL
MODEL 5
REMARK VINA RESULT:    -8.218      3.969      6.329
REMARK INTER + INTRA:         -12.505
REMARK INTER:                 -12.725
REMARK INTRA:                   0.220
REMARK UNBOUND:                -0.685
REMARK  Name = laboratorio_evolutivo\Gen5_Mutante_7.pdb
REMARK  13 active torsions:
REMARK  status: ('A' for Active; 'I' for Inactive)
REMARK    1  A    between atoms: C1_1  and  C2_2
REMARK    2  A    between atoms: C2_2  and  C3_3
REMARK    3  A    between atoms: C3_3  and  C4_4
REMARK    4  A    between atoms: C3_3  and  C6_6
REMARK    5  A    between atoms: C4_4  and  C5_5
REMARK    6  A    between atoms: C6_6  and  C7_7
REMARK    7  A    between atoms: C7_7  and  C8_9
REMARK    8  A    between atoms: C9_10  and  C10_11
REMARK    9  A    between atoms: C13_14  and  C14_15
REMARK   10  A    between atoms: C15_16  and  C16_17
REMARK   11  A    between atoms: N1_18  and  O2_19
REMARK   12  A    between atoms: C18_21  and  C19_22
REMARK   13  A    between atoms: C20_24  and  C21_25
REMARK                            x       y       z     vdW  Elec       q    Type
REMARK                         _______ _______ _______ _____ _____    ______ ____
ROOT
ATOM      1  C8  UNL     1       2.617  65.673  68.068  0.00  0.00    +0.000 C 
ATOM      2  C9  UNL     1       3.277  66.735  68.954  0.00  0.00    +0.000 C 
ATOM      3  C10 UNL     1       3.178  68.171  68.463  0.00  0.00    +0.000 C 
ATOM      4  C11 UNL     1       4.718  66.259  69.119  0.00  0.00    +0.000 C 
ATOM      5  C12 UNL     1       4.685  64.736  68.991  0.00  0.00    +0.000 C 
ATOM      6  C13 UNL     1       3.275  64.342  68.515  0.00  0.00    +0.000 C 
ENDROOT
BRANCH   6   7
ATOM      7  C14 UNL     1       2.336  63.532  69.410  0.00  0.00    +0.000 C 
ATOM      8  C15 UNL     1       2.633  62.160  69.606  0.00  0.00    +0.000 C 
ATOM      9  C17 UNL     1       1.821  61.314  70.359  0.00  0.00    +0.000 C 
ATOM     10  C18 UNL     1       0.685  61.848  70.920  0.00  0.00    +0.000 C 
ATOM     11  C19 UNL     1      -0.235  60.995  71.740  0.00  0.00    +0.000 C 
ATOM     12  N2  UNL     1       0.356  63.144  70.758  0.00  0.00    +0.000 NA
ATOM     13  C20 UNL     1       1.147  63.968  70.012  0.00  0.00    +0.000 C 
ATOM     14  C21 UNL     1       0.598  65.361  69.955  0.00  0.00    +0.000 C 
BRANCH   8  15
ATOM     15  C16 UNL     1       3.862  61.549  69.053  0.00  0.00    +0.000 C 
ATOM     16  N1  UNL     1       4.965  61.297  69.691  0.00  0.00    +0.000 NA
BRANCH  16  17
ATOM     17  O2  UNL     1       4.874  61.629  71.047  0.00  0.00    +0.000 OA
ATOM     18  H   UNL     1       4.535  61.007  71.660  0.00  0.00    +0.000 HD
ENDBRANCH  16  17
ENDBRANCH   8  15
ENDBRANCH   6   7
BRANCH   1  19
ATOM     19  C7  UNL     1       2.838  65.892  66.568  0.00  0.00    +0.000 C 
ATOM     20  O1  UNL     1       2.121  66.658  65.924  0.00  0.00    +0.000 OA
BRANCH  19  21
ATOM     21  C6  UNL     1       3.948  65.074  65.918  0.00  0.00    +0.000 C 
BRANCH  21  22
ATOM     22  C3  UNL     1       4.963  65.919  65.126  0.00  0.00    +0.000 C 
BRANCH  22  24
ATOM     23  C1  UNL     1       4.491  64.422  63.052  0.00  0.00    +0.000 C 
ATOM     24  C2  UNL     1       4.704  65.823  63.604  0.00  0.00    +0.000 C 
ENDBRANCH  22  24
BRANCH  22  25
ATOM     25  C4  UNL     1       5.121  67.381  65.607  0.00  0.00    +0.000 C 
ATOM     26  C5  UNL     1       4.805  68.476  64.596  0.00  0.00    +0.000 C 
ENDBRANCH  22  25
ENDBRANCH  21  22
ENDBRANCH  19  21
ENDBRANCH   1  19
TORSDOF 8
ENDMDL
MODEL 6
REMARK VINA RESULT:    -8.211      3.260      5.429
REMARK INTER + INTRA:         -12.496
REMARK INTER:                 -12.650
REMARK INTRA:                   0.154
REMARK UNBOUND:                -0.685
REMARK  Name = laboratorio_evolutivo\Gen5_Mutante_7.pdb
REMARK  13 active torsions:
REMARK  status: ('A' for Active; 'I' for Inactive)
REMARK    1  A    between atoms: C1_1  and  C2_2
REMARK    2  A    between atoms: C2_2  and  C3_3
REMARK    3  A    between atoms: C3_3  and  C4_4
REMARK    4  A    between atoms: C3_3  and  C6_6
REMARK    5  A    between atoms: C4_4  and  C5_5
REMARK    6  A    between atoms: C6_6  and  C7_7
REMARK    7  A    between atoms: C7_7  and  C8_9
REMARK    8  A    between atoms: C9_10  and  C10_11
REMARK    9  A    between atoms: C13_14  and  C14_15
REMARK   10  A    between atoms: C15_16  and  C16_17
REMARK   11  A    between atoms: N1_18  and  O2_19
REMARK   12  A    between atoms: C18_21  and  C19_22
REMARK   13  A    between atoms: C20_24  and  C21_25
REMARK                            x       y       z     vdW  Elec       q    Type
REMARK                         _______ _______ _______ _____ _____    ______ ____
ROOT
ATOM      1  C8  UNL     1       2.746  65.007  68.201  0.00  0.00    +0.000 C 
ATOM      2  C9  UNL     1       4.082  64.277  68.377  0.00  0.00    +0.000 C 
ATOM      3  C10 UNL     1       4.000  62.851  68.899  0.00  0.00    +0.000 C 
ATOM      4  C11 UNL     1       4.907  65.194  69.277  0.00  0.00    +0.000 C 
ATOM      5  C12 UNL     1       4.406  66.615  69.016  0.00  0.00    +0.000 C 
ATOM      6  C13 UNL     1       3.135  66.507  68.153  0.00  0.00    +0.000 C 
ENDROOT
BRANCH   6   7
ATOM      7  C14 UNL     1       3.104  67.044  66.722  0.00  0.00    +0.000 C 
ATOM      8  C15 UNL     1       1.910  67.668  66.278  0.00  0.00    +0.000 C 
ATOM      9  C17 UNL     1       1.749  68.147  64.980  0.00  0.00    +0.000 C 
ATOM     10  C18 UNL     1       2.799  67.994  64.105  0.00  0.00    +0.000 C 
ATOM     11  C19 UNL     1       2.694  68.485  62.694  0.00  0.00    +0.000 C 
ATOM     12  N2  UNL     1       3.951  67.402  64.476  0.00  0.00    +0.000 NA
ATOM     13  C20 UNL     1       4.103  66.924  65.745  0.00  0.00    +0.000 C 
ATOM     14  C21 UNL     1       5.450  66.301  65.945  0.00  0.00    +0.000 C 
BRANCH   8  15
ATOM     15  C16 UNL     1       0.768  67.888  67.193  0.00  0.00    +0.000 C 
ATOM     16  N1  UNL     1      -0.428  67.394  67.082  0.00  0.00    +0.000 NA
BRANCH  16  17
ATOM     17  O2  UNL     1      -0.544  66.542  65.978  0.00  0.00    +0.000 OA
ATOM     18  H   UNL     1      -1.293  66.601  65.418  0.00  0.00    +0.000 HD
ENDBRANCH  16  17
ENDBRANCH   8  15
ENDBRANCH   6   7
BRANCH   1  19
ATOM     19  C7  UNL     1       1.747  64.758  69.335  0.00  0.00    +0.000 C 
ATOM     20  O1  UNL     1       1.108  65.683  69.837  0.00  0.00    +0.000 OA
BRANCH  19  21
ATOM     21  C6  UNL     1       1.632  63.322  69.836  0.00  0.00    +0.000 C 
BRANCH  21  22
ATOM     22  C3  UNL     1       0.889  63.187  71.178  0.00  0.00    +0.000 C 
BRANCH  22  24
ATOM     23  C1  UNL     1      -0.915  61.590  72.159  0.00  0.00    +0.000 C 
ATOM     24  C2  UNL     1      -0.465  62.462  70.997  0.00  0.00    +0.000 C 
ENDBRANCH  22  24
BRANCH  22  25
ATOM     25  C4  UNL     1       1.725  62.595  72.337  0.00  0.00    +0.000 C 
ATOM     26  C5  UNL     1       2.740  61.520  71.975  0.00  0.00    +0.000 C 
ENDBRANCH  22  25
ENDBRANCH  21  22
ENDBRANCH  19  21
ENDBRANCH   1  19
TORSDOF 8
ENDMDL
MODEL 7
REMARK VINA RESULT:    -8.174      2.689      4.637
REMARK INTER + INTRA:         -12.442
REMARK INTER:                 -12.287
REMARK INTRA:                  -0.156
REMARK UNBOUND:                -0.685
REMARK  Name = laboratorio_evolutivo\Gen5_Mutante_7.pdb
REMARK  13 active torsions:
REMARK  status: ('A' for Active; 'I' for Inactive)
REMARK    1  A    between atoms: C1_1  and  C2_2
REMARK    2  A    between atoms: C2_2  and  C3_3
REMARK    3  A    between atoms: C3_3  and  C4_4
REMARK    4  A    between atoms: C3_3  and  C6_6
REMARK    5  A    between atoms: C4_4  and  C5_5
REMARK    6  A    between atoms: C6_6  and  C7_7
REMARK    7  A    between atoms: C7_7  and  C8_9
REMARK    8  A    between atoms: C9_10  and  C10_11
REMARK    9  A    between atoms: C13_14  and  C14_15
REMARK   10  A    between atoms: C15_16  and  C16_17
REMARK   11  A    between atoms: N1_18  and  O2_19
REMARK   12  A    between atoms: C18_21  and  C19_22
REMARK   13  A    between atoms: C20_24  and  C21_25
REMARK                            x       y       z     vdW  Elec       q    Type
REMARK                         _______ _______ _______ _____ _____    ______ ____
ROOT
ATOM      1  C8  UNL     1       2.482  66.250  67.795  0.00  0.00    +0.000 C 
ATOM      2  C9  UNL     1       3.939  66.564  68.155  0.00  0.00    +0.000 C 
ATOM      3  C10 UNL     1       4.698  65.466  68.884  0.00  0.00    +0.000 C 
ATOM      4  C11 UNL     1       3.869  67.867  68.947  0.00  0.00    +0.000 C 
ATOM      5  C12 UNL     1       2.630  68.609  68.445  0.00  0.00    +0.000 C 
ATOM      6  C13 UNL     1       1.846  67.641  67.539  0.00  0.00    +0.000 C 
ENDROOT
BRANCH   6   7
ATOM      7  C14 UNL     1       1.687  67.912  66.043  0.00  0.00    +0.000 C 
ATOM      8  C15 UNL     1       0.414  67.679  65.463  0.00  0.00    +0.000 C 
ATOM      9  C17 UNL     1       0.166  67.842  64.102  0.00  0.00    +0.000 C 
ATOM     10  C18 UNL     1       1.212  68.239  63.302  0.00  0.00    +0.000 C 
ATOM     11  C19 UNL     1       1.016  68.433  61.830  0.00  0.00    +0.000 C 
ATOM     12  N2  UNL     1       2.441  68.468  63.804  0.00  0.00    +0.000 NA
ATOM     13  C20 UNL     1       2.684  68.297  65.136  0.00  0.00    +0.000 C 
ATOM     14  C21 UNL     1       4.111  68.597  65.482  0.00  0.00    +0.000 C 
BRANCH   8  15
ATOM     15  C16 UNL     1      -0.750  67.285  66.288  0.00  0.00    +0.000 C 
ATOM     16  N1  UNL     1      -1.737  68.045  66.658  0.00  0.00    +0.000 NA
BRANCH  16  17
ATOM     17  O2  UNL     1      -1.627  69.339  66.140  0.00  0.00    +0.000 OA
ATOM     18  H   UNL     1      -2.332  69.707  65.645  0.00  0.00    +0.000 HD
ENDBRANCH  16  17
ENDBRANCH   8  15
ENDBRANCH   6   7
BRANCH   1  19
ATOM     19  C7  UNL     1       1.715  65.514  68.897  0.00  0.00    +0.000 C 
ATOM     20  O1  UNL     1       0.668  65.969  69.358  0.00  0.00    +0.000 OA
BRANCH  19  21
ATOM     21  C6  UNL     1       2.343  64.227  69.419  0.00  0.00    +0.000 C 
BRANCH  21  22
ATOM     22  C3  UNL     1       1.408  63.005  69.355  0.00  0.00    +0.000 C 
BRANCH  22  24
ATOM     23  C1  UNL     1       3.649  61.876  68.672  0.00  0.00    +0.000 C 
ATOM     24  C2  UNL     1       2.134  61.776  68.761  0.00  0.00    +0.000 C 
ENDBRANCH  22  24
BRANCH  22  25
ATOM     25  C4  UNL     1       0.665  62.673  70.671  0.00  0.00    +0.000 C 
ATOM     26  C5  UNL     1       0.731  61.231  71.153  0.00  0.00    +0.000 C 
ENDBRANCH  22  25
ENDBRANCH  21  22
ENDBRANCH  19  21
ENDBRANCH   1  19
TORSDOF 8
ENDMDL
MODEL 8
REMARK VINA RESULT:    -8.068      6.718      9.708
REMARK INTER + INTRA:         -12.290
REMARK INTER:                 -11.066
REMARK INTRA:                  -1.224
REMARK UNBOUND:                -0.685
REMARK  Name = laboratorio_evolutivo\Gen5_Mutante_7.pdb
REMARK  13 active torsions:
REMARK  status: ('A' for Active; 'I' for Inactive)
REMARK    1  A    between atoms: C1_1  and  C2_2
REMARK    2  A    between atoms: C2_2  and  C3_3
REMARK    3  A    between atoms: C3_3  and  C4_4
REMARK    4  A    between atoms: C3_3  and  C6_6
REMARK    5  A    between atoms: C4_4  and  C5_5
REMARK    6  A    between atoms: C6_6  and  C7_7
REMARK    7  A    between atoms: C7_7  and  C8_9
REMARK    8  A    between atoms: C9_10  and  C10_11
REMARK    9  A    between atoms: C13_14  and  C14_15
REMARK   10  A    between atoms: C15_16  and  C16_17
REMARK   11  A    between atoms: N1_18  and  O2_19
REMARK   12  A    between atoms: C18_21  and  C19_22
REMARK   13  A    between atoms: C20_24  and  C21_25
REMARK                            x       y       z     vdW  Elec       q    Type
REMARK                         _______ _______ _______ _____ _____    ______ ____
ROOT
ATOM      1  C8  UNL     1       1.936  61.868  72.513  0.00  0.00    +0.000 C 
ATOM      2  C9  UNL     1       0.784  62.694  73.095  0.00  0.00    +0.000 C 
ATOM      3  C10 UNL     1       0.507  62.504  74.578  0.00  0.00    +0.000 C 
ATOM      4  C11 UNL     1      -0.418  62.351  72.217  0.00  0.00    +0.000 C 
ATOM      5  C12 UNL     1       0.146  61.982  70.844  0.00  0.00    +0.000 C 
ATOM      6  C13 UNL     1       1.675  61.874  70.985  0.00  0.00    +0.000 C 
ENDROOT
BRANCH   6   7
ATOM      7  C14 UNL     1       2.606  62.850  70.266  0.00  0.00    +0.000 C 
ATOM      8  C15 UNL     1       3.912  62.400  69.944  0.00  0.00    +0.000 C 
ATOM      9  C17 UNL     1       4.862  63.218  69.336  0.00  0.00    +0.000 C 
ATOM     10  C18 UNL     1       4.503  64.515  69.050  0.00  0.00    +0.000 C 
ATOM     11  C19 UNL     1       5.475  65.450  68.398  0.00  0.00    +0.000 C 
ATOM     12  N2  UNL     1       3.277  64.992  69.342  0.00  0.00    +0.000 NA
ATOM     13  C20 UNL     1       2.352  64.192  69.947  0.00  0.00    +0.000 C 
ATOM     14  C21 UNL     1       1.063  64.917  70.186  0.00  0.00    +0.000 C 
BRANCH   8  15
ATOM     15  C16 UNL     1       4.332  61.004  70.199  0.00  0.00    +0.000 C 
ATOM     16  N1  UNL     1       5.102  60.583  71.157  0.00  0.00    +0.000 NA
BRANCH  16  17
ATOM     17  O2  UNL     1       5.490  61.619  72.013  0.00  0.00    +0.000 OA
ATOM     18  H   UNL     1       5.925  62.373  71.669  0.00  0.00    +0.000 HD
ENDBRANCH  16  17
ENDBRANCH   8  15
ENDBRANCH   6   7
BRANCH   1  19
ATOM     19  C7  UNL     1       1.994  60.429  73.033  0.00  0.00    +0.000 C 
ATOM     20  O1  UNL     1       2.597  60.149  74.069  0.00  0.00    +0.000 OA
BRANCH  19  21
ATOM     21  C6  UNL     1       1.314  59.368  72.175  0.00  0.00    +0.000 C 
BRANCH  21  22
ATOM     22  C3  UNL     1       0.429  58.393  72.972  0.00  0.00    +0.000 C 
BRANCH  22  24
ATOM     23  C1  UNL     1      -1.320  59.366  74.633  0.00  0.00    +0.000 C 
ATOM     24  C2  UNL     1      -0.983  58.980  73.201  0.00  0.00    +0.000 C 
ENDBRANCH  22  24
BRANCH  22  25
ATOM     25  C4  UNL     1       0.386  56.946  72.428  0.00  0.00    +0.000 C 
ATOM     26  C5  UNL     1      -0.366  55.918  73.263  0.00  0.00    +0.000 C 
ENDBRANCH  22  25
ENDBRANCH  21  22
ENDBRANCH  19  21
ENDBRANCH   1  19
TORSDOF 8
ENDMDL
MODEL 9
REMARK VINA RESULT:    -8.042      5.599      8.175
REMARK INTER + INTRA:         -12.253
REMARK INTER:                 -12.545
REMARK INTRA:                   0.292
REMARK UNBOUND:                -0.685
REMARK  Name = laboratorio_evolutivo\Gen5_Mutante_7.pdb
REMARK  13 active torsions:
REMARK  status: ('A' for Active; 'I' for Inactive)
REMARK    1  A    between atoms: C1_1  and  C2_2
REMARK    2  A    between atoms: C2_2  and  C3_3
REMARK    3  A    between atoms: C3_3  and  C4_4
REMARK    4  A    between atoms: C3_3  and  C6_6
REMARK    5  A    between atoms: C4_4  and  C5_5
REMARK    6  A    between atoms: C6_6  and  C7_7
REMARK    7  A    between atoms: C7_7  and  C8_9
REMARK    8  A    between atoms: C9_10  and  C10_11
REMARK    9  A    between atoms: C13_14  and  C14_15
REMARK   10  A    between atoms: C15_16  and  C16_17
REMARK   11  A    between atoms: N1_18  and  O2_19
REMARK   12  A    between atoms: C18_21  and  C19_22
REMARK   13  A    between atoms: C20_24  and  C21_25
REMARK                            x       y       z     vdW  Elec       q    Type
REMARK                         _______ _______ _______ _____ _____    ______ ____
ROOT
ATOM      1  C8  UNL     1       3.325  61.823  70.673  0.00  0.00    +0.000 C 
ATOM      2  C9  UNL     1       4.263  60.619  70.538  0.00  0.00    +0.000 C 
ATOM      3  C10 UNL     1       5.742  60.896  70.758  0.00  0.00    +0.000 C 
ATOM      4  C11 UNL     1       3.963  60.049  69.154  0.00  0.00    +0.000 C 
ATOM      5  C12 UNL     1       2.507  60.405  68.850  0.00  0.00    +0.000 C 
ATOM      6  C13 UNL     1       2.031  61.382  69.940  0.00  0.00    +0.000 C 
ENDROOT
BRANCH   6   7
ATOM      7  C14 UNL     1       0.938  60.988  70.933  0.00  0.00    +0.000 C 
ATOM      8  C15 UNL     1      -0.047  61.958  71.249  0.00  0.00    +0.000 C 
ATOM      9  C17 UNL     1      -1.061  61.728  72.177  0.00  0.00    +0.000 C 
ATOM     10  C18 UNL     1      -1.086  60.507  72.809  0.00  0.00    +0.000 C 
ATOM     11  C19 UNL     1      -2.146  60.192  73.820  0.00  0.00    +0.000 C 
ATOM     12  N2  UNL     1      -0.169  59.554  72.549  0.00  0.00    +0.000 NA
ATOM     13  C20 UNL     1       0.828  59.785  71.647  0.00  0.00    +0.000 C 
ATOM     14  C21 UNL     1       1.739  58.604  71.513  0.00  0.00    +0.000 C 
BRANCH   8  15
ATOM     15  C16 UNL     1      -0.082  63.271  70.568  0.00  0.00    +0.000 C 
ATOM     16  N1  UNL     1      -0.113  64.442  71.131  0.00  0.00    +0.000 NA
BRANCH  16  17
ATOM     17  O2  UNL     1      -0.060  64.355  72.527  0.00  0.00    +0.000 OA
ATOM     18  H   UNL     1       0.748  64.509  72.975  0.00  0.00    +0.000 HD
ENDBRANCH  16  17
ENDBRANCH   8  15
ENDBRANCH   6   7
BRANCH   1  19
ATOM     19  C7  UNL     1       3.872  63.110  70.049  0.00  0.00    +0.000 C 
ATOM     20  O1  UNL     1       5.054  63.428  70.177  0.00  0.00    +0.000 OA
BRANCH  19  21
ATOM     21  C6  UNL     1       2.867  63.990  69.314  0.00  0.00    +0.000 C 
BRANCH  21  22
ATOM     22  C3  UNL     1       3.447  65.331  68.832  0.00  0.00    +0.000 C 
BRANCH  22  24
ATOM     23  C1  UNL     1       5.393  65.881  67.195  0.00  0.00    +0.000 C 
ATOM     24  C2  UNL     1       4.050  65.201  67.413  0.00  0.00    +0.000 C 
ENDBRANCH  22  24
BRANCH  22  25
ATOM     25  C4  UNL     1       2.497  66.546  68.960  0.00  0.00    +0.000 C 
ATOM     26  C5  UNL     1       3.049  67.900  68.535  0.00  0.00    +0.000 C 
ENDBRANCH  22  25
ENDBRANCH  21  22
ENDBRANCH  19  21
ENDBRANCH   1  19
TORSDOF 8
ENDMDL
