REMARK  Name = laboratorio_evolutivo\Gen5_Mutante_2.pdb
REMARK  12 active torsions:
REMARK  status: ('A' for Active; 'I' for Inactive)
REMARK    1  A    between atoms: C1_1  and  C2_2
REMARK    2  A    between atoms: C2_2  and  C3_3
REMARK    3  A    between atoms: C3_3  and  C4_4
REMARK    4  A    between atoms: C3_3  and  C6_6
REMARK    5  A    between atoms: C4_4  and  C5_5
REMARK    6  A    between atoms: C6_6  and  C7_7
REMARK    7  A    between atoms: C7_7  and  C8_9
REMARK    8  A    between atoms: C9_10  and  C10_11
REMARK    9  A    between atoms: C13_14  and  C14_15
REMARK   10  A    between atoms: C16_18  and  C17_19
REMARK   11  A    between atoms: C19_21  and  C20_22
REMARK   12  A    between atoms: C20_22  and  C21_23
REMARK                            x       y       z     vdW  Elec       q    Type
REMARK                         _______ _______ _______ _____ _____    ______ ____
ROOT
ATOM      1  C8  UNL     1       0.245  -1.717   0.002  0.00  0.00    +0.000 C 
ATOM      2  C9  UNL     1       0.570  -3.175   0.371  0.00  0.00    +0.000 C 
ATOM      3  C10 UNL     1       1.962  -3.342   0.966  0.00  0.00    +0.000 C 
ATOM      4  C11 UNL     1      -0.534  -3.545   1.355  0.00  0.00    +0.000 C 
ATOM      5  C12 UNL     1      -1.778  -2.933   0.729  0.00  0.00    +0.000 C 
ATOM      6  C13 UNL     1      -1.306  -1.628   0.058  0.00  0.00    +0.000 C 
ENDROOT
BRANCH   6   7
ATOM      7  C14 UNL     1      -1.826  -0.399   0.783  0.00  0.00    +0.000 C 
ATOM      8  C15 UNL     1      -1.370  -0.071   2.056  0.00  0.00    +0.000 C 
ATOM      9  N1  UNL     1      -1.752   1.019   2.761  0.00  0.00    +0.000 NA
ATOM     10  C16 UNL     1      -2.668   1.840   2.207  0.00  0.00    +0.000 C 
ATOM     11  C17 UNL     1      -3.111   3.028   3.008  0.00  0.00    +0.000 C 
ATOM     12  C18 UNL     1      -3.209   1.602   0.954  0.00  0.00    +0.000 C 
ATOM     13  C19 UNL     1      -2.784   0.474   0.243  0.00  0.00    +0.000 C 
BRANCH  13  14
ATOM     14  C20 UNL     1      -3.422   0.223  -1.072  0.00  0.00    +0.000 C 
ATOM     15  C21 UNL     1      -3.440   1.351  -2.070  0.00  0.00    +0.000 C 
ATOM     16  O2  UNL     1      -3.932  -0.868  -1.304  0.00  0.00    +0.000 OA
ENDBRANCH  13  14
ENDBRANCH   6   7
BRANCH   1  17
ATOM     17  C7  UNL     1       0.759  -1.329  -1.386  0.00  0.00    +0.000 C 
ATOM     18  O1  UNL     1       1.129  -2.167  -2.208  0.00  0.00    +0.000 OA
BRANCH  17  19
ATOM     19  C6  UNL     1       0.800   0.151  -1.730  0.00  0.00    +0.000 C 
BRANCH  19  20
ATOM     20  C3  UNL     1       1.987   0.877  -1.071  0.00  0.00    +0.000 C 
BRANCH  20  22
ATOM     21  C1  UNL     1       2.769   3.251  -0.440  0.00  0.00    +0.000 C 
ATOM     22  C2  UNL     1       1.723   2.395  -1.140  0.00  0.00    +0.000 C 
ENDBRANCH  20  22
BRANCH  20  23
ATOM     23  C4  UNL     1       3.319   0.475  -1.752  0.00  0.00    +0.000 C 
ATOM     24  C5  UNL     1       4.454   0.277  -0.753  0.00  0.00    +0.000 C 
ENDBRANCH  20  23
ENDBRANCH  19  20
ENDBRANCH  17  19
ENDBRANCH   1  17
TORSDOF 7
