MODEL 1
REMARK VINA RESULT:    -6.699      0.000      0.000
REMARK INTER + INTRA:         -10.835
REMARK INTER:                  -9.440
REMARK INTRA:                  -1.395
REMARK UNBOUND:                -1.395
REMARK  Name = laboratorio_evolutivo\Gen5_Mutante_2.pdb
REMARK  12 active torsions:
REMARK  status: ('A' for Active; 'I' for Inactive)
REMARK    1  A    between atoms: C1_1  and  C2_2
REMARK    2  A    between atoms: C2_2  and  C3_3
REMARK    3  A    between atoms: C3_3  and  C4_4
REMARK    4  A    between atoms: C3_3  and  C6_6
REMARK    5  A    between atoms: C4_4  and  C5_5
REMARK    6  A    between atoms: C6_6  and  C7_7
REMARK    7  A    between atoms: C7_7  and  C8_9
REMARK    8  A    between atoms: C9_10  and  C10_11
REMARK    9  A    between atoms: C13_14  and  C14_15
REMARK   10  A    between atoms: C16_18  and  C17_19
REMARK   11  A    between atoms: C19_21  and  C20_22
REMARK   12  A    between atoms: C20_22  and  C21_23
REMARK                            x       y       z     vdW  Elec       q    Type
REMARK                         _______ _______ _______ _____ _____    ______ ____
ROOT
ATOM      1  C8  UNL     1       1.033   1.426  19.320  0.00  0.00    +0.000 C 
ATOM      2  C9  UNL     1      -0.244   2.167  19.754  0.00  0.00    +0.000 C 
ATOM      3  C10 UNL     1      -0.773   3.116  18.687  0.00  0.00    +0.000 C 
ATOM      4  C11 UNL     1      -1.219   1.038  20.067  0.00  0.00    +0.000 C 
ATOM      5  C12 UNL     1      -0.356   0.029  20.810  0.00  0.00    +0.000 C 
ATOM      6  C13 UNL     1       1.039   0.118  20.160  0.00  0.00    +0.000 C 
ENDROOT
BRANCH   6   7
ATOM      7  C14 UNL     1       1.369  -1.128  19.356  0.00  0.00    +0.000 C 
ATOM      8  C15 UNL     1       1.512  -1.071  17.973  0.00  0.00    +0.000 C 
ATOM      9  N1  UNL     1       1.836  -2.120  17.182  0.00  0.00    +0.000 NA
ATOM     10  C16 UNL     1       2.006  -3.324  17.768  0.00  0.00    +0.000 C 
ATOM     11  C17 UNL     1       2.333  -4.488  16.881  0.00  0.00    +0.000 C 
ATOM     12  C18 UNL     1       1.867  -3.505  19.134  0.00  0.00    +0.000 C 
ATOM     13  C19 UNL     1       1.544  -2.398  19.928  0.00  0.00    +0.000 C 
BRANCH  13  14
ATOM     14  C20 UNL     1       1.353  -2.638  21.379  0.00  0.00    +0.000 C 
ATOM     15  C21 UNL     1       2.471  -2.246  22.309  0.00  0.00    +0.000 C 
ATOM     16  O2  UNL     1       0.319  -3.163  21.779  0.00  0.00    +0.000 OA
ENDBRANCH  13  14
ENDBRANCH   6   7
BRANCH   1  17
ATOM     17  C7  UNL     1       2.304   2.238  19.576  0.00  0.00    +0.000 C 
ATOM     18  O1  UNL     1       2.610   3.214  18.891  0.00  0.00    +0.000 OA
BRANCH  17  19
ATOM     19  C6  UNL     1       3.198   1.798  20.723  0.00  0.00    +0.000 C 
BRANCH  19  20
ATOM     20  C3  UNL     1       2.975   2.631  21.998  0.00  0.00    +0.000 C 
BRANCH  20  22
ATOM     21  C1  UNL     1       3.247   5.183  21.755  0.00  0.00    +0.000 C 
ATOM     22  C2  UNL     1       3.933   3.840  21.959  0.00  0.00    +0.000 C 
ENDBRANCH  20  22
BRANCH  20  23
ATOM     23  C4  UNL     1       3.173   1.758  23.263  0.00  0.00    +0.000 C 
ATOM     24  C5  UNL     1       3.107   2.569  24.553  0.00  0.00    +0.000 C 
ENDBRANCH  20  23
ENDBRANCH  19  20
ENDBRANCH  17  19
ENDBRANCH   1  17
TORSDOF 7
ENDMDL
MODEL 2
REMARK VINA RESULT:    -6.595      1.990      3.260
REMARK INTER + INTRA:         -10.689
REMARK INTER:                  -8.235
REMARK INTRA:                  -2.454
REMARK UNBOUND:                -1.395
REMARK  Name = laboratorio_evolutivo\Gen5_Mutante_2.pdb
REMARK  12 active torsions:
REMARK  status: ('A' for Active; 'I' for Inactive)
REMARK    1  A    between atoms: C1_1  and  C2_2
REMARK    2  A    between atoms: C2_2  and  C3_3
REMARK    3  A    between atoms: C3_3  and  C4_4
REMARK    4  A    between atoms: C3_3  and  C6_6
REMARK    5  A    between atoms: C4_4  and  C5_5
REMARK    6  A    between atoms: C6_6  and  C7_7
REMARK    7  A    between atoms: C7_7  and  C8_9
REMARK    8  A    between atoms: C9_10  and  C10_11
REMARK    9  A    between atoms: C13_14  and  C14_15
REMARK   10  A    between atoms: C16_18  and  C17_19
REMARK   11  A    between atoms: C19_21  and  C20_22
REMARK   12  A    between atoms: C20_22  and  C21_23
REMARK                            x       y       z     vdW  Elec       q    Type
REMARK                         _______ _______ _______ _____ _____    ______ ____
ROOT
ATOM      1  C8  UNL     1       1.046   0.453  19.100  0.00  0.00    +0.000 C 
ATOM      2  C9  UNL     1       1.378   1.669  18.218  0.00  0.00    +0.000 C 
ATOM      3  C10 UNL     1       2.647   2.391  18.654  0.00  0.00    +0.000 C 
ATOM      4  C11 UNL     1       1.496   1.071  16.821  0.00  0.00    +0.000 C 
ATOM      5  C12 UNL     1       0.335   0.091  16.762  0.00  0.00    +0.000 C 
ATOM      6  C13 UNL     1       0.203  -0.482  18.187  0.00  0.00    +0.000 C 
ENDROOT
BRANCH   6   7
ATOM      7  C14 UNL     1       0.619  -1.942  18.251  0.00  0.00    +0.000 C 
ATOM      8  C15 UNL     1       1.735  -2.400  17.557  0.00  0.00    +0.000 C 
ATOM      9  N1  UNL     1       2.197  -3.672  17.582  0.00  0.00    +0.000 NA
ATOM     10  C16 UNL     1       1.510  -4.579  18.309  0.00  0.00    +0.000 C 
ATOM     11  C17 UNL     1       2.009  -5.993  18.305  0.00  0.00    +0.000 C 
ATOM     12  C18 UNL     1       0.372  -4.242  19.022  0.00  0.00    +0.000 C 
ATOM     13  C19 UNL     1      -0.074  -2.915  18.988  0.00  0.00    +0.000 C 
BRANCH  13  14
ATOM     14  C20 UNL     1      -1.324  -2.602  19.722  0.00  0.00    +0.000 C 
ATOM     15  C21 UNL     1      -1.240  -2.445  21.217  0.00  0.00    +0.000 C 
ATOM     16  O2  UNL     1      -2.382  -2.504  19.109  0.00  0.00    +0.000 OA
ENDBRANCH  13  14
ENDBRANCH   6   7
BRANCH   1  17
ATOM     17  C7  UNL     1       0.261   0.830  20.358  0.00  0.00    +0.000 C 
ATOM     18  O1  UNL     1      -0.861   1.332  20.307  0.00  0.00    +0.000 OA
BRANCH  17  19
ATOM     19  C6  UNL     1       0.919   0.560  21.702  0.00  0.00    +0.000 C 
BRANCH  19  20
ATOM     20  C3  UNL     1       2.312  -0.081  21.558  0.00  0.00    +0.000 C 
BRANCH  20  22
ATOM     21  C1  UNL     1       2.413  -2.654  21.676  0.00  0.00    +0.000 C 
ATOM     22  C2  UNL     1       2.356  -1.342  22.445  0.00  0.00    +0.000 C 
ENDBRANCH  20  22
BRANCH  20  23
ATOM     23  C4  UNL     1       3.422   0.937  21.919  0.00  0.00    +0.000 C 
ATOM     24  C5  UNL     1       3.139   1.678  23.222  0.00  0.00    +0.000 C 
ENDBRANCH  20  23
ENDBRANCH  19  20
ENDBRANCH  17  19
ENDBRANCH   1  17
TORSDOF 7
ENDMDL
MODEL 3
REMARK VINA RESULT:    -6.496     22.517     26.315
REMARK INTER + INTRA:         -10.549
REMARK INTER:                  -9.059
REMARK INTRA:                  -1.490
REMARK UNBOUND:                -1.395
REMARK  Name = laboratorio_evolutivo\Gen5_Mutante_2.pdb
REMARK  12 active torsions:
REMARK  status: ('A' for Active; 'I' for Inactive)
REMARK    1  A    between atoms: C1_1  and  C2_2
REMARK    2  A    between atoms: C2_2  and  C3_3
REMARK    3  A    between atoms: C3_3  and  C4_4
REMARK    4  A    between atoms: C3_3  and  C6_6
REMARK    5  A    between atoms: C4_4  and  C5_5
REMARK    6  A    between atoms: C6_6  and  C7_7
REMARK    7  A    between atoms: C7_7  and  C8_9
REMARK    8  A    between atoms: C9_10  and  C10_11
REMARK    9  A    between atoms: C13_14  and  C14_15
REMARK   10  A    between atoms: C16_18  and  C17_19
REMARK   11  A    between atoms: C19_21  and  C20_22
REMARK   12  A    between atoms: C20_22  and  C21_23
REMARK                            x       y       z     vdW  Elec       q    Type
REMARK                         _______ _______ _______ _____ _____    ______ ____
ROOT
ATOM      1  C8  UNL     1      17.325  -9.219   1.569  0.00  0.00    +0.000 C 
ATOM      2  C9  UNL     1      17.475 -10.044   0.279  0.00  0.00    +0.000 C 
ATOM      3  C10 UNL     1      16.387 -11.097   0.116  0.00  0.00    +0.000 C 
ATOM      4  C11 UNL     1      17.437  -8.990  -0.822  0.00  0.00    +0.000 C 
ATOM      5  C12 UNL     1      18.292  -7.866  -0.257  0.00  0.00    +0.000 C 
ATOM      6  C13 UNL     1      18.030  -7.868   1.262  0.00  0.00    +0.000 C 
ENDROOT
BRANCH   6   7
ATOM      7  C14 UNL     1      17.241  -6.647   1.702  0.00  0.00    +0.000 C 
ATOM      8  C15 UNL     1      15.922  -6.762   2.130  0.00  0.00    +0.000 C 
ATOM      9  N1  UNL     1      15.156  -5.737   2.569  0.00  0.00    +0.000 NA
ATOM     10  C16 UNL     1      15.694  -4.500   2.566  0.00  0.00    +0.000 C 
ATOM     11  C17 UNL     1      14.827  -3.365   3.023  0.00  0.00    +0.000 C 
ATOM     12  C18 UNL     1      16.990  -4.262   2.140  0.00  0.00    +0.000 C 
ATOM     13  C19 UNL     1      17.763  -5.344   1.705  0.00  0.00    +0.000 C 
BRANCH  13  14
ATOM     14  C20 UNL     1      19.128  -5.044   1.208  0.00  0.00    +0.000 C 
ATOM     15  C21 UNL     1      20.229  -4.900   2.226  0.00  0.00    +0.000 C 
ATOM     16  O2  UNL     1      19.322  -4.900   0.006  0.00  0.00    +0.000 OA
ENDBRANCH  13  14
ENDBRANCH   6   7
BRANCH   1  17
ATOM     17  C7  UNL     1      17.961  -9.897   2.784  0.00  0.00    +0.000 C 
ATOM     18  O1  UNL     1      17.288 -10.411   3.677  0.00  0.00    +0.000 OA
BRANCH  17  19
ATOM     19  C6  UNL     1      19.479  -9.922   2.858  0.00  0.00    +0.000 C 
BRANCH  19  20
ATOM     20  C3  UNL     1      20.008  -9.520   4.247  0.00  0.00    +0.000 C 
BRANCH  20  22
ATOM     21  C1  UNL     1      21.851  -8.042   3.217  0.00  0.00    +0.000 C 
ATOM     22  C2  UNL     1      20.640  -8.118   4.136  0.00  0.00    +0.000 C 
ENDBRANCH  20  22
BRANCH  20  23
ATOM     23  C4  UNL     1      21.004 -10.580   4.779  0.00  0.00    +0.000 C 
ATOM     24  C5  UNL     1      20.589 -12.006   4.430  0.00  0.00    +0.000 C 
ENDBRANCH  20  23
ENDBRANCH  19  20
ENDBRANCH  17  19
ENDBRANCH   1  17
TORSDOF 7
ENDMDL
MODEL 4
REMARK VINA RESULT:    -6.462      2.559      4.585
REMARK INTER + INTRA:         -10.502
REMARK INTER:                  -7.895
REMARK INTRA:                  -2.607
REMARK UNBOUND:                -1.395
REMARK  Name = laboratorio_evolutivo\Gen5_Mutante_2.pdb
REMARK  12 active torsions:
REMARK  status: ('A' for Active; 'I' for Inactive)
REMARK    1  A    between atoms: C1_1  and  C2_2
REMARK    2  A    between atoms: C2_2  and  C3_3
REMARK    3  A    between atoms: C3_3  and  C4_4
REMARK    4  A    between atoms: C3_3  and  C6_6
REMARK    5  A    between atoms: C4_4  and  C5_5
REMARK    6  A    between atoms: C6_6  and  C7_7
REMARK    7  A    between atoms: C7_7  and  C8_9
REMARK    8  A    between atoms: C9_10  and  C10_11
REMARK    9  A    between atoms: C13_14  and  C14_15
REMARK   10  A    between atoms: C16_18  and  C17_19
REMARK   11  A    between atoms: C19_21  and  C20_22
REMARK   12  A    between atoms: C20_22  and  C21_23
REMARK                            x       y       z     vdW  Elec       q    Type
REMARK                         _______ _______ _______ _____ _____    ______ ____
ROOT
ATOM      1  C8  UNL     1       1.778   1.284  20.387  0.00  0.00    +0.000 C 
ATOM      2  C9  UNL     1       2.842   0.998  21.462  0.00  0.00    +0.000 C 
ATOM      3  C10 UNL     1       2.991   2.131  22.468  0.00  0.00    +0.000 C 
ATOM      4  C11 UNL     1       2.355  -0.295  22.106  0.00  0.00    +0.000 C 
ATOM      5  C12 UNL     1       1.897  -1.126  20.917  0.00  0.00    +0.000 C 
ATOM      6  C13 UNL     1       1.307  -0.119  19.910  0.00  0.00    +0.000 C 
ENDROOT
BRANCH   6   7
ATOM      7  C14 UNL     1      -0.201  -0.254  19.791  0.00  0.00    +0.000 C 
ATOM      8  C15 UNL     1      -0.981  -0.574  20.897  0.00  0.00    +0.000 C 
ATOM      9  N1  UNL     1      -2.330  -0.682  20.891  0.00  0.00    +0.000 NA
ATOM     10  C16 UNL     1      -2.973  -0.498  19.720  0.00  0.00    +0.000 C 
ATOM     11  C17 UNL     1      -4.465  -0.652  19.714  0.00  0.00    +0.000 C 
ATOM     12  C18 UNL     1      -2.298  -0.197  18.548  0.00  0.00    +0.000 C 
ATOM     13  C19 UNL     1      -0.904  -0.078  18.588  0.00  0.00    +0.000 C 
BRANCH  13  14
ATOM     14  C20 UNL     1      -0.210   0.194  17.306  0.00  0.00    +0.000 C 
ATOM     15  C21 UNL     1      -0.356   1.569  16.707  0.00  0.00    +0.000 C 
ATOM     16  O2  UNL     1       0.433  -0.696  16.760  0.00  0.00    +0.000 OA
ENDBRANCH  13  14
ENDBRANCH   6   7
BRANCH   1  17
ATOM     17  C7  UNL     1       2.326   2.099  19.214  0.00  0.00    +0.000 C 
ATOM     18  O1  UNL     1       3.088   1.616  18.377  0.00  0.00    +0.000 OA
BRANCH  17  19
ATOM     19  C6  UNL     1       1.893   3.552  19.107  0.00  0.00    +0.000 C 
BRANCH  19  20
ATOM     20  C3  UNL     1       0.830   3.929  20.156  0.00  0.00    +0.000 C 
BRANCH  20  22
ATOM     21  C1  UNL     1      -1.642   3.222  19.977  0.00  0.00    +0.000 C 
ATOM     22  C2  UNL     1      -0.522   4.097  19.433  0.00  0.00    +0.000 C 
ENDBRANCH  20  22
BRANCH  20  23
ATOM     23  C4  UNL     1       1.253   5.204  20.927  0.00  0.00    +0.000 C 
ATOM     24  C5  UNL     1       2.701   5.600  20.660  0.00  0.00    +0.000 C 
ENDBRANCH  20  23
ENDBRANCH  19  20
ENDBRANCH  17  19
ENDBRANCH   1  17
TORSDOF 7
ENDMDL
MODEL 5
REMARK VINA RESULT:    -6.424     24.673     26.979
REMARK INTER + INTRA:         -10.447
REMARK INTER:                  -8.703
REMARK INTRA:                  -1.745
REMARK UNBOUND:                -1.395
REMARK  Name = laboratorio_evolutivo\Gen5_Mutante_2.pdb
REMARK  12 active torsions:
REMARK  status: ('A' for Active; 'I' for Inactive)
REMARK    1  A    between atoms: C1_1  and  C2_2
REMARK    2  A    between atoms: C2_2  and  C3_3
REMARK    3  A    between atoms: C3_3  and  C4_4
REMARK    4  A    between atoms: C3_3  and  C6_6
REMARK    5  A    between atoms: C4_4  and  C5_5
REMARK    6  A    between atoms: C6_6  and  C7_7
REMARK    7  A    between atoms: C7_7  and  C8_9
REMARK    8  A    between atoms: C9_10  and  C10_11
REMARK    9  A    between atoms: C13_14  and  C14_15
REMARK   10  A    between atoms: C16_18  and  C17_19
REMARK   11  A    between atoms: C19_21  and  C20_22
REMARK   12  A    between atoms: C20_22  and  C21_23
REMARK                            x       y       z     vdW  Elec       q    Type
REMARK                         _______ _______ _______ _____ _____    ______ ____
ROOT
ATOM      1  C8  UNL     1      17.980  -6.004   1.112  0.00  0.00    +0.000 C 
ATOM      2  C9  UNL     1      16.899  -5.349   1.989  0.00  0.00    +0.000 C 
ATOM      3  C10 UNL     1      16.937  -3.827   1.943  0.00  0.00    +0.000 C 
ATOM      4  C11 UNL     1      15.599  -5.917   1.432  0.00  0.00    +0.000 C 
ATOM      5  C12 UNL     1      15.933  -7.383   1.196  0.00  0.00    +0.000 C 
ATOM      6  C13 UNL     1      17.411  -7.407   0.759  0.00  0.00    +0.000 C 
ENDROOT
BRANCH   6   7
ATOM      7  C14 UNL     1      17.562  -7.782  -0.704  0.00  0.00    +0.000 C 
ATOM      8  C15 UNL     1      17.755  -6.807  -1.678  0.00  0.00    +0.000 C 
ATOM      9  N1  UNL     1      17.932  -7.051  -2.997  0.00  0.00    +0.000 NA
ATOM     10  C16 UNL     1      17.889  -8.333  -3.414  0.00  0.00    +0.000 C 
ATOM     11  C17 UNL     1      18.052  -8.593  -4.881  0.00  0.00    +0.000 C 
ATOM     12  C18 UNL     1      17.680  -9.386  -2.537  0.00  0.00    +0.000 C 
ATOM     13  C19 UNL     1      17.515  -9.103  -1.177  0.00  0.00    +0.000 C 
BRANCH  13  14
ATOM     14  C20 UNL     1      17.242 -10.249  -0.276  0.00  0.00    +0.000 C 
ATOM     15  C21 UNL     1      15.849 -10.822  -0.270  0.00  0.00    +0.000 C 
ATOM     16  O2  UNL     1      18.133 -10.681   0.448  0.00  0.00    +0.000 OA
ENDBRANCH  13  14
ENDBRANCH   6   7
BRANCH   1  17
ATOM     17  C7  UNL     1      19.326  -6.131   1.828  0.00  0.00    +0.000 C 
ATOM     18  O1  UNL     1      19.919  -5.157   2.292  0.00  0.00    +0.000 OA
BRANCH  17  19
ATOM     19  C6  UNL     1      19.925  -7.523   1.955  0.00  0.00    +0.000 C 
BRANCH  19  20
ATOM     20  C3  UNL     1      19.993  -8.004   3.415  0.00  0.00    +0.000 C 
BRANCH  20  22
ATOM     21  C1  UNL     1      21.890  -9.569   4.188  0.00  0.00    +0.000 C 
ATOM     22  C2  UNL     1      21.478  -8.155   3.804  0.00  0.00    +0.000 C 
ENDBRANCH  20  22
BRANCH  20  23
ATOM     23  C4  UNL     1      19.196  -9.320   3.594  0.00  0.00    +0.000 C 
ATOM     24  C5  UNL     1      17.712  -9.080   3.847  0.00  0.00    +0.000 C 
ENDBRANCH  20  23
ENDBRANCH  19  20
ENDBRANCH  17  19
ENDBRANCH   1  17
TORSDOF 7
ENDMDL
MODEL 6
REMARK VINA RESULT:    -6.312     24.212     27.293
REMARK INTER + INTRA:         -10.290
REMARK INTER:                  -8.826
REMARK INTRA:                  -1.464
REMARK UNBOUND:                -1.395
REMARK  Name = laboratorio_evolutivo\Gen5_Mutante_2.pdb
REMARK  12 active torsions:
REMARK  status: ('A' for Active; 'I' for Inactive)
REMARK    1  A    between atoms: C1_1  and  C2_2
REMARK    2  A    between atoms: C2_2  and  C3_3
REMARK    3  A    between atoms: C3_3  and  C4_4
REMARK    4  A    between atoms: C3_3  and  C6_6
REMARK    5  A    between atoms: C4_4  and  C5_5
REMARK    6  A    between atoms: C6_6  and  C7_7
REMARK    7  A    between atoms: C7_7  and  C8_9
REMARK    8  A    between atoms: C9_10  and  C10_11
REMARK    9  A    between atoms: C13_14  and  C14_15
REMARK   10  A    between atoms: C16_18  and  C17_19
REMARK   11  A    between atoms: C19_21  and  C20_22
REMARK   12  A    between atoms: C20_22  and  C21_23
REMARK                            x       y       z     vdW  Elec       q    Type
REMARK                         _______ _______ _______ _____ _____    ______ ____
ROOT
ATOM      1  C8  UNL     1      16.304  -7.662   0.301  0.00  0.00    +0.000 C 
ATOM      2  C9  UNL     1      14.773  -7.613   0.446  0.00  0.00    +0.000 C 
ATOM      3  C10 UNL     1      14.079  -8.835  -0.140  0.00  0.00    +0.000 C 
ATOM      4  C11 UNL     1      14.565  -7.489   1.952  0.00  0.00    +0.000 C 
ATOM      5  C12 UNL     1      15.635  -6.493   2.370  0.00  0.00    +0.000 C 
ATOM      6  C13 UNL     1      16.843  -6.771   1.454  0.00  0.00    +0.000 C 
ENDROOT
BRANCH   6   7
ATOM      7  C14 UNL     1      18.002  -7.388   2.218  0.00  0.00    +0.000 C 
ATOM      8  C15 UNL     1      17.817  -8.510   3.019  0.00  0.00    +0.000 C 
ATOM      9  N1  UNL     1      18.794  -9.144   3.707  0.00  0.00    +0.000 NA
ATOM     10  C16 UNL     1      20.043  -8.637   3.641  0.00  0.00    +0.000 C 
ATOM     11  C17 UNL     1      21.115  -9.325   4.432  0.00  0.00    +0.000 C 
ATOM     12  C18 UNL     1      20.342  -7.510   2.893  0.00  0.00    +0.000 C 
ATOM     13  C19 UNL     1      19.312  -6.884   2.181  0.00  0.00    +0.000 C 
BRANCH  13  14
ATOM     14  C20 UNL     1      19.659  -5.651   1.434  0.00  0.00    +0.000 C 
ATOM     15  C21 UNL     1      20.172  -4.474   2.221  0.00  0.00    +0.000 C 
ATOM     16  O2  UNL     1      19.499  -5.610   0.218  0.00  0.00    +0.000 OA
ENDBRANCH  13  14
ENDBRANCH   6   7
BRANCH   1  17
ATOM     17  C7  UNL     1      16.787  -7.143  -1.055  0.00  0.00    +0.000 C 
ATOM     18  O1  UNL     1      16.379  -6.086  -1.537  0.00  0.00    +0.000 OA
BRANCH  17  19
ATOM     19  C6  UNL     1      17.805  -7.984  -1.806  0.00  0.00    +0.000 C 
BRANCH  19  20
ATOM     20  C3  UNL     1      17.193  -8.709  -3.018  0.00  0.00    +0.000 C 
BRANCH  20  22
ATOM     21  C1  UNL     1      17.986 -10.622  -1.483  0.00  0.00    +0.000 C 
ATOM     22  C2  UNL     1      17.226 -10.226  -2.741  0.00  0.00    +0.000 C 
ENDBRANCH  20  22
BRANCH  20  23
ATOM     23  C4  UNL     1      17.942  -8.328  -4.319  0.00  0.00    +0.000 C 
ATOM     24  C5  UNL     1      18.598  -9.528  -4.994  0.00  0.00    +0.000 C 
ENDBRANCH  20  23
ENDBRANCH  19  20
ENDBRANCH  17  19
ENDBRANCH   1  17
TORSDOF 7
ENDMDL
MODEL 7
REMARK VINA RESULT:    -6.301      2.351      5.331
REMARK INTER + INTRA:         -10.275
REMARK INTER:                  -7.996
REMARK INTRA:                  -2.279
REMARK UNBOUND:                -1.395
REMARK  Name = laboratorio_evolutivo\Gen5_Mutante_2.pdb
REMARK  12 active torsions:
REMARK  status: ('A' for Active; 'I' for Inactive)
REMARK    1  A    between atoms: C1_1  and  C2_2
REMARK    2  A    between atoms: C2_2  and  C3_3
REMARK    3  A    between atoms: C3_3  and  C4_4
REMARK    4  A    between atoms: C3_3  and  C6_6
REMARK    5  A    between atoms: C4_4  and  C5_5
REMARK    6  A    between atoms: C6_6  and  C7_7
REMARK    7  A    between atoms: C7_7  and  C8_9
REMARK    8  A    between atoms: C9_10  and  C10_11
REMARK    9  A    between atoms: C13_14  and  C14_15
REMARK   10  A    between atoms: C16_18  and  C17_19
REMARK   11  A    between atoms: C19_21  and  C20_22
REMARK   12  A    between atoms: C20_22  and  C21_23
REMARK                            x       y       z     vdW  Elec       q    Type
REMARK                         _______ _______ _______ _____ _____    ______ ____
ROOT
ATOM      1  C8  UNL     1       0.660  -0.775  20.409  0.00  0.00    +0.000 C 
ATOM      2  C9  UNL     1       1.529  -1.530  19.388  0.00  0.00    +0.000 C 
ATOM      3  C10 UNL     1       1.880  -2.943  19.835  0.00  0.00    +0.000 C 
ATOM      4  C11 UNL     1       0.683  -1.511  18.120  0.00  0.00    +0.000 C 
ATOM      5  C12 UNL     1       0.125  -0.096  18.095  0.00  0.00    +0.000 C 
ATOM      6  C13 UNL     1      -0.110   0.284  19.571  0.00  0.00    +0.000 C 
ENDROOT
BRANCH   6   7
ATOM      7  C14 UNL     1      -1.589   0.374  19.903  0.00  0.00    +0.000 C 
ATOM      8  C15 UNL     1      -2.312  -0.756  20.272  0.00  0.00    +0.000 C 
ATOM      9  N1  UNL     1      -3.620  -0.764  20.616  0.00  0.00    +0.000 NA
ATOM     10  C16 UNL     1      -4.292   0.406  20.570  0.00  0.00    +0.000 C 
ATOM     11  C17 UNL     1      -5.750   0.384  20.920  0.00  0.00    +0.000 C 
ATOM     12  C18 UNL     1      -3.682   1.592  20.195  0.00  0.00    +0.000 C 
ATOM     13  C19 UNL     1      -2.324   1.570  19.859  0.00  0.00    +0.000 C 
BRANCH  13  14
ATOM     14  C20 UNL     1      -1.717   2.848  19.413  0.00  0.00    +0.000 C 
ATOM     15  C21 UNL     1      -1.706   3.142  17.936  0.00  0.00    +0.000 C 
ATOM     16  O2  UNL     1      -1.225   3.610  20.238  0.00  0.00    +0.000 OA
ENDBRANCH  13  14
ENDBRANCH   6   7
BRANCH   1  17
ATOM     17  C7  UNL     1       1.486  -0.100  21.506  0.00  0.00    +0.000 C 
ATOM     18  O1  UNL     1       1.855  -0.700  22.515  0.00  0.00    +0.000 OA
BRANCH  17  19
ATOM     19  C6  UNL     1       1.848   1.363  21.310  0.00  0.00    +0.000 C 
BRANCH  19  20
ATOM     20  C3  UNL     1       3.215   1.547  20.628  0.00  0.00    +0.000 C 
BRANCH  20  22
ATOM     21  C1  UNL     1       3.390   2.956  22.779  0.00  0.00    +0.000 C 
ATOM     22  C2  UNL     1       4.052   2.524  21.479  0.00  0.00    +0.000 C 
ENDBRANCH  20  22
BRANCH  20  23
ATOM     23  C4  UNL     1       3.036   2.035  19.169  0.00  0.00    +0.000 C 
ATOM     24  C5  UNL     1       2.079   3.217  19.057  0.00  0.00    +0.000 C 
ENDBRANCH  20  23
ENDBRANCH  19  20
ENDBRANCH  17  19
ENDBRANCH   1  17
TORSDOF 7
ENDMDL
MODEL 8
REMARK VINA RESULT:    -6.296     24.611     27.820
REMARK INTER + INTRA:         -10.267
REMARK INTER:                  -8.137
REMARK INTRA:                  -2.131
REMARK UNBOUND:                -1.395
REMARK  Name = laboratorio_evolutivo\Gen5_Mutante_2.pdb
REMARK  12 active torsions:
REMARK  status: ('A' for Active; 'I' for Inactive)
REMARK    1  A    between atoms: C1_1  and  C2_2
REMARK    2  A    between atoms: C2_2  and  C3_3
REMARK    3  A    between atoms: C3_3  and  C4_4
REMARK    4  A    between atoms: C3_3  and  C6_6
REMARK    5  A    between atoms: C4_4  and  C5_5
REMARK    6  A    between atoms: C6_6  and  C7_7
REMARK    7  A    between atoms: C7_7  and  C8_9
REMARK    8  A    between atoms: C9_10  and  C10_11
REMARK    9  A    between atoms: C13_14  and  C14_15
REMARK   10  A    between atoms: C16_18  and  C17_19
REMARK   11  A    between atoms: C19_21  and  C20_22
REMARK   12  A    between atoms: C20_22  and  C21_23
REMARK                            x       y       z     vdW  Elec       q    Type
REMARK                         _______ _______ _______ _____ _____    ______ ____
ROOT
ATOM      1  C8  UNL     1      19.848  21.243  17.549  0.00  0.00    +0.000 C 
ATOM      2  C9  UNL     1      19.136  22.604  17.633  0.00  0.00    +0.000 C 
ATOM      3  C10 UNL     1      17.649  22.518  17.315  0.00  0.00    +0.000 C 
ATOM      4  C11 UNL     1      19.401  23.054  19.066  0.00  0.00    +0.000 C 
ATOM      5  C12 UNL     1      20.860  22.681  19.282  0.00  0.00    +0.000 C 
ATOM      6  C13 UNL     1      21.078  21.378  18.489  0.00  0.00    +0.000 C 
ENDROOT
BRANCH   6   7
ATOM      7  C14 UNL     1      21.285  20.185  19.407  0.00  0.00    +0.000 C 
ATOM      8  C15 UNL     1      20.339  19.849  20.370  0.00  0.00    +0.000 C 
ATOM      9  N1  UNL     1      20.425  18.788  21.206  0.00  0.00    +0.000 NA
ATOM     10  C16 UNL     1      21.523  18.009  21.126  0.00  0.00    +0.000 C 
ATOM     11  C17 UNL     1      21.627  16.854  22.078  0.00  0.00    +0.000 C 
ATOM     12  C18 UNL     1      22.541  18.260  20.220  0.00  0.00    +0.000 C 
ATOM     13  C19 UNL     1      22.418  19.356  19.360  0.00  0.00    +0.000 C 
BRANCH  13  14
ATOM     14  C20 UNL     1      23.549  19.625  18.439  0.00  0.00    +0.000 C 
ATOM     15  C21 UNL     1      23.665  18.773  17.202  0.00  0.00    +0.000 C 
ATOM     16  O2  UNL     1      24.363  20.501  18.712  0.00  0.00    +0.000 OA
ENDBRANCH  13  14
ENDBRANCH   6   7
BRANCH   1  17
ATOM     17  C7  UNL     1      20.290  20.893  16.127  0.00  0.00    +0.000 C 
ATOM     18  O1  UNL     1      20.581  21.755  15.298  0.00  0.00    +0.000 OA
BRANCH  17  19
ATOM     19  C6  UNL     1      20.363  19.421  15.757  0.00  0.00    +0.000 C 
BRANCH  19  20
ATOM     20  C3  UNL     1      19.207  18.603  16.361  0.00  0.00    +0.000 C 
BRANCH  20  22
ATOM     21  C1  UNL     1      18.968  16.162  17.157  0.00  0.00    +0.000 C 
ATOM     22  C2  UNL     1      19.811  17.430  17.159  0.00  0.00    +0.000 C 
ENDBRANCH  20  22
BRANCH  20  23
ATOM     23  C4  UNL     1      18.236  18.128  15.252  0.00  0.00    +0.000 C 
ATOM     24  C5  UNL     1      18.898  18.060  13.880  0.00  0.00    +0.000 C 
ENDBRANCH  20  23
ENDBRANCH  19  20
ENDBRANCH  17  19
ENDBRANCH   1  17
TORSDOF 7
ENDMDL
MODEL 9
REMARK VINA RESULT:    -6.290      2.335      4.229
REMARK INTER + INTRA:         -10.260
REMARK INTER:                  -7.500
REMARK INTRA:                  -2.759
REMARK UNBOUND:                -1.395
REMARK  Name = laboratorio_evolutivo\Gen5_Mutante_2.pdb
REMARK  12 active torsions:
REMARK  status: ('A' for Active; 'I' for Inactive)
REMARK    1  A    between atoms: C1_1  and  C2_2
REMARK    2  A    between atoms: C2_2  and  C3_3
REMARK    3  A    between atoms: C3_3  and  C4_4
REMARK    4  A    between atoms: C3_3  and  C6_6
REMARK    5  A    between atoms: C4_4  and  C5_5
REMARK    6  A    between atoms: C6_6  and  C7_7
REMARK    7  A    between atoms: C7_7  and  C8_9
REMARK    8  A    between atoms: C9_10  and  C10_11
REMARK    9  A    between atoms: C13_14  and  C14_15
REMARK   10  A    between atoms: C16_18  and  C17_19
REMARK   11  A    between atoms: C19_21  and  C20_22
REMARK   12  A    between atoms: C20_22  and  C21_23
REMARK                            x       y       z     vdW  Elec       q    Type
REMARK                         _______ _______ _______ _____ _____    ______ ____
ROOT
ATOM      1  C8  UNL     1       0.934   1.576  19.238  0.00  0.00    +0.000 C 
ATOM      2  C9  UNL     1       1.328   3.061  19.327  0.00  0.00    +0.000 C 
ATOM      3  C10 UNL     1       2.295   3.353  20.466  0.00  0.00    +0.000 C 
ATOM      4  C11 UNL     1       1.934   3.348  17.958  0.00  0.00    +0.000 C 
ATOM      5  C12 UNL     1       0.996   2.625  17.003  0.00  0.00    +0.000 C 
ATOM      6  C13 UNL     1       0.540   1.357  17.751  0.00  0.00    +0.000 C 
ENDROOT
BRANCH   6   7
ATOM      7  C14 UNL     1       1.127   0.097  17.138  0.00  0.00    +0.000 C 
ATOM      8  C15 UNL     1       2.503  -0.066  17.015  0.00  0.00    +0.000 C 
ATOM      9  N1  UNL     1       3.114  -1.165  16.514  0.00  0.00    +0.000 NA
ATOM     10  C16 UNL     1       2.334  -2.172  16.069  0.00  0.00    +0.000 C 
ATOM     11  C17 UNL     1       3.017  -3.373  15.484  0.00  0.00    +0.000 C 
ATOM     12  C18 UNL     1       0.951  -2.112  16.121  0.00  0.00    +0.000 C 
ATOM     13  C19 UNL     1       0.349  -0.968  16.657  0.00  0.00    +0.000 C 
BRANCH  13  14
ATOM     14  C20 UNL     1      -1.133  -0.917  16.649  0.00  0.00    +0.000 C 
ATOM     15  C21 UNL     1      -1.860  -1.443  17.859  0.00  0.00    +0.000 C 
ATOM     16  O2  UNL     1      -1.723  -0.478  15.667  0.00  0.00    +0.000 OA
ENDBRANCH  13  14
ENDBRANCH   6   7
BRANCH   1  17
ATOM     17  C7  UNL     1      -0.229   1.216  20.165  0.00  0.00    +0.000 C 
ATOM     18  O1  UNL     1      -1.253   1.896  20.230  0.00  0.00    +0.000 OA
BRANCH  17  19
ATOM     19  C6  UNL     1      -0.084  -0.032  21.020  0.00  0.00    +0.000 C 
BRANCH  19  20
ATOM     20  C3  UNL     1       1.236  -0.779  20.753  0.00  0.00    +0.000 C 
BRANCH  20  22
ATOM     21  C1  UNL     1       2.100  -2.939  19.642  0.00  0.00    +0.000 C 
ATOM     22  C2  UNL     1       0.897  -2.159  20.153  0.00  0.00    +0.000 C 
ENDBRANCH  20  22
BRANCH  20  23
ATOM     23  C4  UNL     1       2.074  -0.887  22.052  0.00  0.00    +0.000 C 
ATOM     24  C5  UNL     1       2.984   0.318  22.265  0.00  0.00    +0.000 C 
ENDBRANCH  20  23
ENDBRANCH  19  20
ENDBRANCH  17  19
ENDBRANCH   1  17
TORSDOF 7
ENDMDL
