REMARK  Name = laboratorio_evolutivo\Gen5_Mutante_3.pdb
REMARK  13 active torsions:
REMARK  status: ('A' for Active; 'I' for Inactive)
REMARK    1  A    between atoms: C1_1  and  C2_2
REMARK    2  A    between atoms: C2_2  and  C3_3
REMARK    3  A    between atoms: C3_3  and  C4_4
REMARK    4  A    between atoms: C4_4  and  C5_5
REMARK    5  A    between atoms: C4_4  and  C7_7
REMARK    6  A    between atoms: C5_5  and  C6_6
REMARK    7  A    between atoms: C7_7  and  C8_8
REMARK    8  A    between atoms: C8_8  and  C9_10
REMARK    9  A    between atoms: C10_11  and  C11_12
REMARK   10  A    between atoms: C14_15  and  C15_16
REMARK   11  A    between atoms: C17_19  and  C18_20
REMARK   12  A    between atoms: C20_22  and  C21_23
REMARK   13  A    between atoms: N2_24  and  O2_25
REMARK                            x       y       z     vdW  Elec       q    Type
REMARK                         _______ _______ _______ _____ _____    ______ ____
ROOT
ATOM      1  C9  UNL     1      -0.506  -0.926   0.814  0.00  0.00    +0.000 C 
ATOM      2  C10 UNL     1      -0.265  -2.211   1.630  0.00  0.00    +0.000 C 
ATOM      3  C11 UNL     1       1.184  -2.618   1.844  0.00  0.00    +0.000 C 
ATOM      4  C12 UNL     1      -1.031  -1.976   2.929  0.00  0.00    +0.000 C 
ATOM      5  C13 UNL     1      -2.318  -1.322   2.446  0.00  0.00    +0.000 C 
ATOM      6  C14 UNL     1      -1.880  -0.388   1.299  0.00  0.00    +0.000 C 
ENDROOT
BRANCH   6   7
ATOM      7  C15 UNL     1      -2.897  -0.288   0.183  0.00  0.00    +0.000 C 
ATOM      8  C16 UNL     1      -3.293  -1.419  -0.527  0.00  0.00    +0.000 C 
ATOM      9  N1  UNL     1      -4.157  -1.420  -1.568  0.00  0.00    +0.000 NA
ATOM     10  C17 UNL     1      -4.683  -0.236  -1.949  0.00  0.00    +0.000 C 
ATOM     11  C18 UNL     1      -5.638  -0.241  -3.103  0.00  0.00    +0.000 C 
ATOM     12  C19 UNL     1      -4.366   0.953  -1.311  0.00  0.00    +0.000 C 
ATOM     13  C20 UNL     1      -3.457   0.922  -0.249  0.00  0.00    +0.000 C 
BRANCH  13  14
ATOM     14  C21 UNL     1      -3.163   2.191   0.445  0.00  0.00    +0.000 C 
ATOM     15  N2  UNL     1      -2.754   3.308  -0.081  0.00  0.00    +0.000 NA
BRANCH  15  16
ATOM     16  O2  UNL     1      -2.520   3.199  -1.454  0.00  0.00    +0.000 OA
ATOM     17  H   UNL     1      -2.222   3.943  -1.939  0.00  0.00    +0.000 HD
ENDBRANCH  15  16
ENDBRANCH  13  14
ENDBRANCH   6   7
BRANCH   1  18
ATOM     18  C8  UNL     1       0.556   0.154   1.022  0.00  0.00    +0.000 C 
ATOM     19  O1  UNL     1       0.858   0.548   2.149  0.00  0.00    +0.000 OA
BRANCH  18  20
ATOM     20  C7  UNL     1       1.150   0.775  -0.234  0.00  0.00    +0.000 C 
BRANCH  20  21
ATOM     21  C4  UNL     1       2.550   1.385  -0.024  0.00  0.00    +0.000 C 
BRANCH  21  22
ATOM     22  C5  UNL     1       2.941   2.187  -1.284  0.00  0.00    +0.000 C 
ATOM     23  C6  UNL     1       4.278   2.907  -1.169  0.00  0.00    +0.000 C 
ENDBRANCH  21  22
BRANCH  21  24
ATOM     24  C3  UNL     1       3.604   0.330   0.390  0.00  0.00    +0.000 C 
BRANCH  24  26
ATOM     25  C1  UNL     1       4.931  -1.743  -0.145  0.00  0.00    +0.000 C 
ATOM     26  C2  UNL     1       3.899  -0.748  -0.656  0.00  0.00    +0.000 C 
ENDBRANCH  24  26
ENDBRANCH  21  24
ENDBRANCH  20  21
ENDBRANCH  18  20
ENDBRANCH   1  18
TORSDOF 9
