REMARK  Name = laboratorio_evolutivo\Gen5_Mutante_8.pdb
REMARK  12 active torsions:
REMARK  status: ('A' for Active; 'I' for Inactive)
REMARK    1  A    between atoms: C1_1  and  C2_2
REMARK    2  A    between atoms: C2_2  and  C3_3
REMARK    3  A    between atoms: C3_3  and  C4_4
REMARK    4  A    between atoms: C3_3  and  C6_6
REMARK    5  A    between atoms: C4_4  and  C5_5
REMARK    6  A    between atoms: C6_6  and  C7_7
REMARK    7  A    between atoms: C7_7  and  C8_9
REMARK    8  A    between atoms: C9_10  and  C10_11
REMARK    9  A    between atoms: C13_14  and  C14_15
REMARK   10  A    between atoms: C15_16  and  C16_17
REMARK   11  A    between atoms: N1_18  and  O2_19
REMARK   12  A    between atoms: C18_21  and  C19_22
REMARK                            x       y       z     vdW  Elec       q    Type
REMARK                         _______ _______ _______ _____ _____    ______ ____
ROOT
ATOM      1  C8  UNL     1      -0.076  -1.614  -0.342  0.00  0.00    +0.000 C 
ATOM      2  C9  UNL     1      -0.409  -3.079  -0.013  0.00  0.00    +0.000 C 
ATOM      3  C10 UNL     1      -1.723  -3.261   0.734  0.00  0.00    +0.000 C 
ATOM      4  C11 UNL     1       0.781  -3.532   0.831  0.00  0.00    +0.000 C 
ATOM      5  C12 UNL     1       1.990  -2.885   0.167  0.00  0.00    +0.000 C 
ATOM      6  C13 UNL     1       1.467  -1.618  -0.538  0.00  0.00    +0.000 C 
ENDROOT
BRANCH   6   7
ATOM      7  C14 UNL     1       2.164  -0.335  -0.129  0.00  0.00    +0.000 C 
ATOM      8  C15 UNL     1       2.131   0.255   1.141  0.00  0.00    +0.000 C 
ATOM      9  C17 UNL     1       2.755   1.484   1.388  0.00  0.00    +0.000 C 
ATOM     10  C18 UNL     1       3.417   2.112   0.349  0.00  0.00    +0.000 C 
ATOM     11  C19 UNL     1       4.079   3.438   0.563  0.00  0.00    +0.000 C 
ATOM     12  N2  UNL     1       3.495   1.568  -0.881  0.00  0.00    +0.000 NA
ATOM     13  C20 UNL     1       2.876   0.382  -1.089  0.00  0.00    +0.000 C 
ATOM     14  F1  UNL     1       2.975  -0.115  -2.332  0.00  0.00    +0.000 F 
BRANCH   8  15
ATOM     15  C16 UNL     1       1.486  -0.398   2.294  0.00  0.00    +0.000 C 
ATOM     16  N1  UNL     1       0.475   0.045   2.982  0.00  0.00    +0.000 NA
BRANCH  16  17
ATOM     17  O2  UNL     1      -0.003   1.261   2.481  0.00  0.00    +0.000 OA
ATOM     18  H   UNL     1      -0.731   1.683   2.892  0.00  0.00    +0.000 HD
ENDBRANCH  16  17
ENDBRANCH   8  15
ENDBRANCH   6   7
BRANCH   1  19
ATOM     19  C7  UNL     1      -0.809  -1.157  -1.601  0.00  0.00    +0.000 C 
ATOM     20  O1  UNL     1      -0.433  -1.503  -2.725  0.00  0.00    +0.000 OA
BRANCH  19  21
ATOM     21  C6  UNL     1      -2.085  -0.342  -1.443  0.00  0.00    +0.000 C 
BRANCH  21  22
ATOM     22  C3  UNL     1      -1.916   1.025  -0.755  0.00  0.00    +0.000 C 
BRANCH  22  24
ATOM     23  C1  UNL     1      -1.027   2.225  -2.883  0.00  0.00    +0.000 C 
ATOM     24  C2  UNL     1      -0.828   1.913  -1.406  0.00  0.00    +0.000 C 
ENDBRANCH  22  24
BRANCH  22  25
ATOM     25  C4  UNL     1      -3.258   1.787  -0.676  0.00  0.00    +0.000 C 
ATOM     26  C5  UNL     1      -4.315   1.079   0.167  0.00  0.00    +0.000 C 
ENDBRANCH  22  25
ENDBRANCH  21  22
ENDBRANCH  19  21
ENDBRANCH   1  19
TORSDOF 8
