MODEL 1
REMARK VINA RESULT:    -7.033      0.000      0.000
REMARK INTER + INTRA:         -12.011
REMARK INTER:                 -10.528
REMARK INTRA:                  -1.483
REMARK UNBOUND:                -1.483
REMARK  Name = laboratorio_evolutivo\Gen5_Mutante_4.pdb
REMARK  13 active torsions:
REMARK  status: ('A' for Active; 'I' for Inactive)
REMARK    1  A    between atoms: C1_1  and  C2_2
REMARK    2  A    between atoms: C2_2  and  C3_3
REMARK    3  A    between atoms: C5_5  and  C6_6
REMARK    4  A    between atoms: N1_7  and  O1_8
REMARK    5  A    between atoms: C7_9  and  C8_10
REMARK    6  A    between atoms: C11_13  and  C12_14
REMARK    7  A    between atoms: C13_15  and  C14_16
REMARK    8  A    between atoms: C14_16  and  C15_18
REMARK    9  A    between atoms: C15_18  and  C16_19
REMARK   10  A    between atoms: C16_19  and  C17_20
REMARK   11  A    between atoms: C16_19  and  C19_22
REMARK   12  A    between atoms: C17_20  and  C18_21
REMARK   13  A    between atoms: C19_22  and  C20_23
REMARK                            x       y       z     vdW  Elec       q    Type
REMARK                         _______ _______ _______ _____ _____    ______ ____
ROOT
ATOM      1  C8  UNL     1       3.683  60.629  71.703  0.00  0.00    +0.000 C 
ATOM      2  C9  UNL     1       4.866  60.146  70.835  0.00  0.00    +0.000 C 
ATOM      3  C10 UNL     1       5.433  61.395  70.154  0.00  0.00    +0.000 C 
ATOM      4  C11 UNL     1       4.533  62.561  70.577  0.00  0.00    +0.000 C 
ATOM      5  C12 UNL     1       4.430  63.664  69.536  0.00  0.00    +0.000 C 
ATOM      6  C13 UNL     1       3.205  61.911  70.992  0.00  0.00    +0.000 C 
ENDROOT
BRANCH   1  10
ATOM      7  C3  UNL     1       0.639  57.709  72.558  0.00  0.00    +0.000 C 
ATOM      8  C4  UNL     1       0.758  58.792  73.412  0.00  0.00    +0.000 C 
ATOM      9  C5  UNL     1       1.732  59.766  73.148  0.00  0.00    +0.000 C 
ATOM     10  C7  UNL     1       2.595  59.634  72.046  0.00  0.00    +0.000 C 
ATOM     11  C21 UNL     1       2.371  58.511  71.249  0.00  0.00    +0.000 C 
ATOM     12  N2  UNL     1       1.427  57.567  71.476  0.00  0.00    +0.000 NA
BRANCH   7  14
ATOM     13  C1  UNL     1       0.087  55.520  73.637  0.00  0.00    +0.000 C 
ATOM     14  C2  UNL     1      -0.424  56.665  72.776  0.00  0.00    +0.000 C 
ENDBRANCH   7  14
BRANCH   9  15
ATOM     15  C6  UNL     1       1.731  60.899  74.101  0.00  0.00    +0.000 C 
ATOM     16  N1  UNL     1       1.043  60.920  75.197  0.00  0.00    +0.000 NA
BRANCH  16  17
ATOM     17  O1  UNL     1       1.302  62.118  75.871  0.00  0.00    +0.000 OA
ATOM     18  H   UNL     1       0.661  62.801  75.874  0.00  0.00    +0.000 HD
ENDBRANCH  16  17
ENDBRANCH   9  15
ENDBRANCH   1  10
BRANCH   6  19
ATOM     19  C14 UNL     1       2.262  61.600  69.826  0.00  0.00    +0.000 C 
ATOM     20  O2  UNL     1       2.568  60.792  68.949  0.00  0.00    +0.000 OA
BRANCH  19  21
ATOM     21  C15 UNL     1       0.924  62.332  69.839  0.00  0.00    +0.000 C 
BRANCH  21  22
ATOM     22  C16 UNL     1       0.828  63.452  70.898  0.00  0.00    +0.000 C 
BRANCH  22  23
ATOM     23  C17 UNL     1      -0.121  63.073  72.057  0.00  0.00    +0.000 C 
ATOM     24  C18 UNL     1      -0.934  61.807  71.821  0.00  0.00    +0.000 C 
ENDBRANCH  22  23
BRANCH  22  25
ATOM     25  C19 UNL     1       0.363  64.756  70.207  0.00  0.00    +0.000 C 
ATOM     26  C20 UNL     1       1.466  65.492  69.462  0.00  0.00    +0.000 C 
ENDBRANCH  22  25
ENDBRANCH  21  22
ENDBRANCH  19  21
ENDBRANCH   6  19
TORSDOF 9
ENDMDL
MODEL 2
REMARK VINA RESULT:    -6.905      1.963      3.113
REMARK INTER + INTRA:         -11.820
REMARK INTER:                 -10.510
REMARK INTRA:                  -1.310
REMARK UNBOUND:                -1.483
REMARK  Name = laboratorio_evolutivo\Gen5_Mutante_4.pdb
REMARK  13 active torsions:
REMARK  status: ('A' for Active; 'I' for Inactive)
REMARK    1  A    between atoms: C1_1  and  C2_2
REMARK    2  A    between atoms: C2_2  and  C3_3
REMARK    3  A    between atoms: C5_5  and  C6_6
REMARK    4  A    between atoms: N1_7  and  O1_8
REMARK    5  A    between atoms: C7_9  and  C8_10
REMARK    6  A    between atoms: C11_13  and  C12_14
REMARK    7  A    between atoms: C13_15  and  C14_16
REMARK    8  A    between atoms: C14_16  and  C15_18
REMARK    9  A    between atoms: C15_18  and  C16_19
REMARK   10  A    between atoms: C16_19  and  C17_20
REMARK   11  A    between atoms: C16_19  and  C19_22
REMARK   12  A    between atoms: C17_20  and  C18_21
REMARK   13  A    between atoms: C19_22  and  C20_23
REMARK                            x       y       z     vdW  Elec       q    Type
REMARK                         _______ _______ _______ _____ _____    ______ ____
ROOT
ATOM      1  C8  UNL     1       2.646  60.825  73.091  0.00  0.00    +0.000 C 
ATOM      2  C9  UNL     1       3.308  59.433  73.195  0.00  0.00    +0.000 C 
ATOM      3  C10 UNL     1       4.633  59.532  72.432  0.00  0.00    +0.000 C 
ATOM      4  C11 UNL     1       4.683  60.946  71.843  0.00  0.00    +0.000 C 
ATOM      5  C12 UNL     1       5.457  61.036  70.537  0.00  0.00    +0.000 C 
ATOM      6  C13 UNL     1       3.220  61.408  71.784  0.00  0.00    +0.000 C 
ENDROOT
BRANCH   1  10
ATOM      7  C3  UNL     1      -1.643  60.933  73.435  0.00  0.00    +0.000 C 
ATOM      8  C4  UNL     1      -0.921  61.991  73.963  0.00  0.00    +0.000 C 
ATOM      9  C5  UNL     1       0.476  61.988  73.851  0.00  0.00    +0.000 C 
ATOM     10  C7  UNL     1       1.143  60.913  73.235  0.00  0.00    +0.000 C 
ATOM     11  C21 UNL     1       0.312  59.913  72.729  0.00  0.00    +0.000 C 
ATOM     12  N2  UNL     1      -1.040  59.903  72.812  0.00  0.00    +0.000 NA
BRANCH   7  14
ATOM     13  C1  UNL     1      -3.657  61.223  74.891  0.00  0.00    +0.000 C 
ATOM     14  C2  UNL     1      -3.147  60.918  73.491  0.00  0.00    +0.000 C 
ENDBRANCH   7  14
BRANCH   9  15
ATOM     15  C6  UNL     1       1.133  63.193  74.407  0.00  0.00    +0.000 C 
ATOM     16  N1  UNL     1       1.249  63.432  75.674  0.00  0.00    +0.000 NA
BRANCH  16  17
ATOM     17  O1  UNL     1       1.947  64.632  75.845  0.00  0.00    +0.000 OA
ATOM     18  H   UNL     1       2.773  64.757  75.420  0.00  0.00    +0.000 HD
ENDBRANCH  16  17
ENDBRANCH   9  15
ENDBRANCH   1  10
BRANCH   6  19
ATOM     19  C14 UNL     1       2.452  60.916  70.554  0.00  0.00    +0.000 C 
ATOM     20  O2  UNL     1       2.299  59.716  70.327  0.00  0.00    +0.000 OA
BRANCH  19  21
ATOM     21  C15 UNL     1       1.874  62.003  69.653  0.00  0.00    +0.000 C 
BRANCH  21  22
ATOM     22  C16 UNL     1       2.451  63.412  69.914  0.00  0.00    +0.000 C 
BRANCH  22  23
ATOM     23  C17 UNL     1       1.350  64.495  69.926  0.00  0.00    +0.000 C 
ATOM     24  C18 UNL     1       0.259  64.278  70.967  0.00  0.00    +0.000 C 
ENDBRANCH  22  23
BRANCH  22  25
ATOM     25  C19 UNL     1       3.519  63.722  68.838  0.00  0.00    +0.000 C 
ATOM     26  C20 UNL     1       4.754  64.430  69.375  0.00  0.00    +0.000 C 
ENDBRANCH  22  25
ENDBRANCH  21  22
ENDBRANCH  19  21
ENDBRANCH   6  19
TORSDOF 9
ENDMDL
MODEL 3
REMARK VINA RESULT:    -6.705      2.121      4.595
REMARK INTER + INTRA:         -11.520
REMARK INTER:                 -10.507
REMARK INTRA:                  -1.014
REMARK UNBOUND:                -1.483
REMARK  Name = laboratorio_evolutivo\Gen5_Mutante_4.pdb
REMARK  13 active torsions:
REMARK  status: ('A' for Active; 'I' for Inactive)
REMARK    1  A    between atoms: C1_1  and  C2_2
REMARK    2  A    between atoms: C2_2  and  C3_3
REMARK    3  A    between atoms: C5_5  and  C6_6
REMARK    4  A    between atoms: N1_7  and  O1_8
REMARK    5  A    between atoms: C7_9  and  C8_10
REMARK    6  A    between atoms: C11_13  and  C12_14
REMARK    7  A    between atoms: C13_15  and  C14_16
REMARK    8  A    between atoms: C14_16  and  C15_18
REMARK    9  A    between atoms: C15_18  and  C16_19
REMARK   10  A    between atoms: C16_19  and  C17_20
REMARK   11  A    between atoms: C16_19  and  C19_22
REMARK   12  A    between atoms: C17_20  and  C18_21
REMARK   13  A    between atoms: C19_22  and  C20_23
REMARK                            x       y       z     vdW  Elec       q    Type
REMARK                         _______ _______ _______ _____ _____    ______ ____
ROOT
ATOM      1  C8  UNL     1       0.534  60.019  72.338  0.00  0.00    +0.000 C 
ATOM      2  C9  UNL     1      -0.729  60.674  72.940  0.00  0.00    +0.000 C 
ATOM      3  C10 UNL     1      -1.164  61.755  71.945  0.00  0.00    +0.000 C 
ATOM      4  C11 UNL     1      -0.115  61.758  70.828  0.00  0.00    +0.000 C 
ATOM      5  C12 UNL     1       0.083  63.119  70.179  0.00  0.00    +0.000 C 
ATOM      6  C13 UNL     1       1.138  61.130  71.455  0.00  0.00    +0.000 C 
ENDROOT
BRANCH   1  10
ATOM      7  C3  UNL     1       3.192  58.114  75.136  0.00  0.00    +0.000 C 
ATOM      8  C4  UNL     1       3.549  58.116  73.798  0.00  0.00    +0.000 C 
ATOM      9  C5  UNL     1       2.708  58.743  72.868  0.00  0.00    +0.000 C 
ATOM     10  C7  UNL     1       1.504  59.340  73.280  0.00  0.00    +0.000 C 
ATOM     11  C21 UNL     1       1.257  59.289  74.652  0.00  0.00    +0.000 C 
ATOM     12  N2  UNL     1       2.062  58.703  75.570  0.00  0.00    +0.000 NA
BRANCH   7  14
ATOM     13  C1  UNL     1       5.281  56.798  75.540  0.00  0.00    +0.000 C 
ATOM     14  C2  UNL     1       4.088  57.495  76.175  0.00  0.00    +0.000 C 
ENDBRANCH   7  14
BRANCH   9  15
ATOM     15  C6  UNL     1       3.219  58.723  71.478  0.00  0.00    +0.000 C 
ATOM     16  N1  UNL     1       3.220  57.671  70.724  0.00  0.00    +0.000 NA
BRANCH  16  17
ATOM     17  O1  UNL     1       3.737  58.013  69.471  0.00  0.00    +0.000 OA
ATOM     18  H   UNL     1       4.661  57.973  69.318  0.00  0.00    +0.000 HD
ENDBRANCH  16  17
ENDBRANCH   9  15
ENDBRANCH   1  10
BRANCH   6  19
ATOM     19  C14 UNL     1       1.994  62.104  72.269  0.00  0.00    +0.000 C 
ATOM     20  O2  UNL     1       1.555  62.661  73.275  0.00  0.00    +0.000 OA
BRANCH  19  21
ATOM     21  C15 UNL     1       3.419  62.317  71.768  0.00  0.00    +0.000 C 
BRANCH  21  22
ATOM     22  C16 UNL     1       3.552  62.321  70.229  0.00  0.00    +0.000 C 
BRANCH  22  23
ATOM     23  C17 UNL     1       4.784  61.519  69.753  0.00  0.00    +0.000 C 
ATOM     24  C18 UNL     1       5.619  60.916  70.875  0.00  0.00    +0.000 C 
ENDBRANCH  22  23
BRANCH  22  25
ATOM     25  C19 UNL     1       3.624  63.786  69.738  0.00  0.00    +0.000 C 
ATOM     26  C20 UNL     1       5.038  64.292  69.497  0.00  0.00    +0.000 C 
ENDBRANCH  22  25
ENDBRANCH  21  22
ENDBRANCH  19  21
ENDBRANCH   6  19
TORSDOF 9
ENDMDL
MODEL 4
REMARK VINA RESULT:    -6.626      1.749      2.771
REMARK INTER + INTRA:         -11.401
REMARK INTER:                 -10.683
REMARK INTRA:                  -0.718
REMARK UNBOUND:                -1.483
REMARK  Name = laboratorio_evolutivo\Gen5_Mutante_4.pdb
REMARK  13 active torsions:
REMARK  status: ('A' for Active; 'I' for Inactive)
REMARK    1  A    between atoms: C1_1  and  C2_2
REMARK    2  A    between atoms: C2_2  and  C3_3
REMARK    3  A    between atoms: C5_5  and  C6_6
REMARK    4  A    between atoms: N1_7  and  O1_8
REMARK    5  A    between atoms: C7_9  and  C8_10
REMARK    6  A    between atoms: C11_13  and  C12_14
REMARK    7  A    between atoms: C13_15  and  C14_16
REMARK    8  A    between atoms: C14_16  and  C15_18
REMARK    9  A    between atoms: C15_18  and  C16_19
REMARK   10  A    between atoms: C16_19  and  C17_20
REMARK   11  A    between atoms: C16_19  and  C19_22
REMARK   12  A    between atoms: C17_20  and  C18_21
REMARK   13  A    between atoms: C19_22  and  C20_23
REMARK                            x       y       z     vdW  Elec       q    Type
REMARK                         _______ _______ _______ _____ _____    ______ ____
ROOT
ATOM      1  C8  UNL     1       3.492  60.998  72.102  0.00  0.00    +0.000 C 
ATOM      2  C9  UNL     1       4.650  60.212  71.448  0.00  0.00    +0.000 C 
ATOM      3  C10 UNL     1       5.396  61.211  70.559  0.00  0.00    +0.000 C 
ATOM      4  C11 UNL     1       4.622  62.531  70.654  0.00  0.00    +0.000 C 
ATOM      5  C12 UNL     1       4.705  63.380  69.395  0.00  0.00    +0.000 C 
ATOM      6  C13 UNL     1       3.207  62.134  71.098  0.00  0.00    +0.000 C 
ENDROOT
BRANCH   1  10
ATOM      7  C3  UNL     1      -0.019  58.932  73.490  0.00  0.00    +0.000 C 
ATOM      8  C4  UNL     1       0.894  58.222  72.727  0.00  0.00    +0.000 C 
ATOM      9  C5  UNL     1       2.053  58.867  72.275  0.00  0.00    +0.000 C 
ATOM     10  C7  UNL     1       2.277  60.225  72.568  0.00  0.00    +0.000 C 
ATOM     11  C21 UNL     1       1.298  60.831  73.355  0.00  0.00    +0.000 C 
ATOM     12  N2  UNL     1       0.179  60.223  73.815  0.00  0.00    +0.000 NA
BRANCH   7  14
ATOM     13  C1  UNL     1      -2.377  59.267  74.256  0.00  0.00    +0.000 C 
ATOM     14  C2  UNL     1      -1.254  58.266  74.036  0.00  0.00    +0.000 C 
ENDBRANCH   7  14
BRANCH   9  15
ATOM     15  C6  UNL     1       2.975  57.995  71.512  0.00  0.00    +0.000 C 
ATOM     16  N1  UNL     1       2.764  57.612  70.294  0.00  0.00    +0.000 NA
BRANCH  16  17
ATOM     17  O1  UNL     1       3.846  56.831  69.873  0.00  0.00    +0.000 OA
ATOM     18  H   UNL     1       4.722  57.143  69.988  0.00  0.00    +0.000 HD
ENDBRANCH  16  17
ENDBRANCH   9  15
ENDBRANCH   1  10
BRANCH   6  19
ATOM     19  C14 UNL     1       2.293  61.674  69.959  0.00  0.00    +0.000 C 
ATOM     20  O2  UNL     1       2.584  60.711  69.250  0.00  0.00    +0.000 OA
BRANCH  19  21
ATOM     21  C15 UNL     1       1.001  62.466  69.781  0.00  0.00    +0.000 C 
BRANCH  21  22
ATOM     22  C16 UNL     1       0.892  63.707  70.694  0.00  0.00    +0.000 C 
BRANCH  22  23
ATOM     23  C17 UNL     1      -0.188  63.529  71.785  0.00  0.00    +0.000 C 
ATOM     24  C18 UNL     1       0.163  64.147  73.131  0.00  0.00    +0.000 C 
ENDBRANCH  22  23
BRANCH  22  25
ATOM     25  C19 UNL     1       0.595  64.947  69.819  0.00  0.00    +0.000 C 
ATOM     26  C20 UNL     1       1.838  65.668  69.319  0.00  0.00    +0.000 C 
ENDBRANCH  22  25
ENDBRANCH  21  22
ENDBRANCH  19  21
ENDBRANCH   6  19
TORSDOF 9
ENDMDL
MODEL 5
REMARK VINA RESULT:    -6.526      2.157      3.395
REMARK INTER + INTRA:         -11.252
REMARK INTER:                 -10.410
REMARK INTRA:                  -0.842
REMARK UNBOUND:                -1.483
REMARK  Name = laboratorio_evolutivo\Gen5_Mutante_4.pdb
REMARK  13 active torsions:
REMARK  status: ('A' for Active; 'I' for Inactive)
REMARK    1  A    between atoms: C1_1  and  C2_2
REMARK    2  A    between atoms: C2_2  and  C3_3
REMARK    3  A    between atoms: C5_5  and  C6_6
REMARK    4  A    between atoms: N1_7  and  O1_8
REMARK    5  A    between atoms: C7_9  and  C8_10
REMARK    6  A    between atoms: C11_13  and  C12_14
REMARK    7  A    between atoms: C13_15  and  C14_16
REMARK    8  A    between atoms: C14_16  and  C15_18
REMARK    9  A    between atoms: C15_18  and  C16_19
REMARK   10  A    between atoms: C16_19  and  C17_20
REMARK   11  A    between atoms: C16_19  and  C19_22
REMARK   12  A    between atoms: C17_20  and  C18_21
REMARK   13  A    between atoms: C19_22  and  C20_23
REMARK                            x       y       z     vdW  Elec       q    Type
REMARK                         _______ _______ _______ _____ _____    ______ ____
ROOT
ATOM      1  C8  UNL     1       2.604  60.706  73.028  0.00  0.00    +0.000 C 
ATOM      2  C9  UNL     1       3.350  59.354  73.084  0.00  0.00    +0.000 C 
ATOM      3  C10 UNL     1       4.679  59.570  72.352  0.00  0.00    +0.000 C 
ATOM      4  C11 UNL     1       4.650  61.008  71.825  0.00  0.00    +0.000 C 
ATOM      5  C12 UNL     1       5.438  61.205  70.540  0.00  0.00    +0.000 C 
ATOM      6  C13 UNL     1       3.162  61.381  71.758  0.00  0.00    +0.000 C 
ENDROOT
BRANCH   1  10
ATOM      7  C3  UNL     1      -1.684  60.830  73.375  0.00  0.00    +0.000 C 
ATOM      8  C4  UNL     1      -1.085  59.600  73.155  0.00  0.00    +0.000 C 
ATOM      9  C5  UNL     1       0.311  59.530  73.053  0.00  0.00    +0.000 C 
ATOM     10  C7  UNL     1       1.096  60.694  73.146  0.00  0.00    +0.000 C 
ATOM     11  C21 UNL     1       0.384  61.870  73.382  0.00  0.00    +0.000 C 
ATOM     12  N2  UNL     1      -0.963  61.959  73.500  0.00  0.00    +0.000 NA
BRANCH   7  14
ATOM     13  C1  UNL     1      -3.723  59.856  74.449  0.00  0.00    +0.000 C 
ATOM     14  C2  UNL     1      -3.176  60.945  73.538  0.00  0.00    +0.000 C 
ENDBRANCH   7  14
BRANCH   9  15
ATOM     15  C6  UNL     1       0.838  58.158  72.869  0.00  0.00    +0.000 C 
ATOM     16  N1  UNL     1       0.531  57.159  73.631  0.00  0.00    +0.000 NA
BRANCH  16  17
ATOM     17  O1  UNL     1       1.175  56.012  73.153  0.00  0.00    +0.000 OA
ATOM     18  H   UNL     1       2.039  56.074  72.797  0.00  0.00    +0.000 HD
ENDBRANCH  16  17
ENDBRANCH   9  15
ENDBRANCH   1  10
BRANCH   6  19
ATOM     19  C14 UNL     1       2.447  60.898  70.493  0.00  0.00    +0.000 C 
ATOM     20  O2  UNL     1       2.426  59.708  70.180  0.00  0.00    +0.000 OA
BRANCH  19  21
ATOM     21  C15 UNL     1       1.749  61.977  69.671  0.00  0.00    +0.000 C 
BRANCH  21  22
ATOM     22  C16 UNL     1       2.039  63.418  70.145  0.00  0.00    +0.000 C 
BRANCH  22  23
ATOM     23  C17 UNL     1       0.742  64.191  70.471  0.00  0.00    +0.000 C 
ATOM     24  C18 UNL     1       0.586  65.509  69.725  0.00  0.00    +0.000 C 
ENDBRANCH  22  23
BRANCH  22  25
ATOM     25  C19 UNL     1       2.859  64.148  69.055  0.00  0.00    +0.000 C 
ATOM     26  C20 UNL     1       4.277  64.502  69.476  0.00  0.00    +0.000 C 
ENDBRANCH  22  25
ENDBRANCH  21  22
ENDBRANCH  19  21
ENDBRANCH   6  19
TORSDOF 9
ENDMDL
MODEL 6
REMARK VINA RESULT:    -6.456      2.455      5.904
REMARK INTER + INTRA:         -11.148
REMARK INTER:                  -9.913
REMARK INTRA:                  -1.235
REMARK UNBOUND:                -1.483
REMARK  Name = laboratorio_evolutivo\Gen5_Mutante_4.pdb
REMARK  13 active torsions:
REMARK  status: ('A' for Active; 'I' for Inactive)
REMARK    1  A    between atoms: C1_1  and  C2_2
REMARK    2  A    between atoms: C2_2  and  C3_3
REMARK    3  A    between atoms: C5_5  and  C6_6
REMARK    4  A    between atoms: N1_7  and  O1_8
REMARK    5  A    between atoms: C7_9  and  C8_10
REMARK    6  A    between atoms: C11_13  and  C12_14
REMARK    7  A    between atoms: C13_15  and  C14_16
REMARK    8  A    between atoms: C14_16  and  C15_18
REMARK    9  A    between atoms: C15_18  and  C16_19
REMARK   10  A    between atoms: C16_19  and  C17_20
REMARK   11  A    between atoms: C16_19  and  C19_22
REMARK   12  A    between atoms: C17_20  and  C18_21
REMARK   13  A    between atoms: C19_22  and  C20_23
REMARK                            x       y       z     vdW  Elec       q    Type
REMARK                         _______ _______ _______ _____ _____    ______ ____
ROOT
ATOM      1  C8  UNL     1       2.378  59.868  70.065  0.00  0.00    +0.000 C 
ATOM      2  C9  UNL     1       3.445  58.829  69.654  0.00  0.00    +0.000 C 
ATOM      3  C10 UNL     1       3.159  57.573  70.484  0.00  0.00    +0.000 C 
ATOM      4  C11 UNL     1       1.987  57.925  71.405  0.00  0.00    +0.000 C 
ATOM      5  C12 UNL     1       2.006  57.180  72.730  0.00  0.00    +0.000 C 
ATOM      6  C13 UNL     1       2.001  59.458  71.503  0.00  0.00    +0.000 C 
ENDROOT
BRANCH   1  10
ATOM      7  C3  UNL     1       3.429  63.998  69.460  0.00  0.00    +0.000 C 
ATOM      8  C4  UNL     1       2.149  63.711  69.905  0.00  0.00    +0.000 C 
ATOM      9  C5  UNL     1       1.786  62.375  70.124  0.00  0.00    +0.000 C 
ATOM     10  C7  UNL     1       2.698  61.334  69.872  0.00  0.00    +0.000 C 
ATOM     11  C21 UNL     1       3.960  61.745  69.443  0.00  0.00    +0.000 C 
ATOM     12  N2  UNL     1       4.338  63.029  69.239  0.00  0.00    +0.000 NA
BRANCH   7  14
ATOM     13  C1  UNL     1       5.285  65.486  68.686  0.00  0.00    +0.000 C 
ATOM     14  C2  UNL     1       3.877  65.421  69.257  0.00  0.00    +0.000 C 
ENDBRANCH   7  14
BRANCH   9  15
ATOM     15  C6  UNL     1       0.410  62.197  70.645  0.00  0.00    +0.000 C 
ATOM     16  N1  UNL     1       0.019  62.615  71.805  0.00  0.00    +0.000 NA
BRANCH  16  17
ATOM     17  O1  UNL     1      -1.338  62.314  71.959  0.00  0.00    +0.000 OA
ATOM     18  H   UNL     1      -1.779  62.533  72.756  0.00  0.00    +0.000 HD
ENDBRANCH  16  17
ENDBRANCH   9  15
ENDBRANCH   1  10
BRANCH   6  19
ATOM     19  C14 UNL     1       2.986  60.016  72.534  0.00  0.00    +0.000 C 
ATOM     20  O2  UNL     1       4.189  59.762  72.478  0.00  0.00    +0.000 OA
BRANCH  19  21
ATOM     21  C15 UNL     1       2.386  60.919  73.607  0.00  0.00    +0.000 C 
BRANCH  21  22
ATOM     22  C16 UNL     1       1.426  60.194  74.576  0.00  0.00    +0.000 C 
BRANCH  22  23
ATOM     23  C17 UNL     1       0.271  61.110  75.039  0.00  0.00    +0.000 C 
ATOM     24  C18 UNL     1       0.691  62.532  75.385  0.00  0.00    +0.000 C 
ENDBRANCH  22  23
BRANCH  22  25
ATOM     25  C19 UNL     1       2.237  59.673  75.786  0.00  0.00    +0.000 C 
ATOM     26  C20 UNL     1       1.762  58.331  76.321  0.00  0.00    +0.000 C 
ENDBRANCH  22  25
ENDBRANCH  21  22
ENDBRANCH  19  21
ENDBRANCH   6  19
TORSDOF 9
ENDMDL
MODEL 7
REMARK VINA RESULT:    -6.214     19.658     22.281
REMARK INTER + INTRA:         -10.785
REMARK INTER:                  -9.848
REMARK INTRA:                  -0.937
REMARK UNBOUND:                -1.483
REMARK  Name = laboratorio_evolutivo\Gen5_Mutante_4.pdb
REMARK  13 active torsions:
REMARK  status: ('A' for Active; 'I' for Inactive)
REMARK    1  A    between atoms: C1_1  and  C2_2
REMARK    2  A    between atoms: C2_2  and  C3_3
REMARK    3  A    between atoms: C5_5  and  C6_6
REMARK    4  A    between atoms: N1_7  and  O1_8
REMARK    5  A    between atoms: C7_9  and  C8_10
REMARK    6  A    between atoms: C11_13  and  C12_14
REMARK    7  A    between atoms: C13_15  and  C14_16
REMARK    8  A    between atoms: C14_16  and  C15_18
REMARK    9  A    between atoms: C15_18  and  C16_19
REMARK   10  A    between atoms: C16_19  and  C17_20
REMARK   11  A    between atoms: C16_19  and  C19_22
REMARK   12  A    between atoms: C17_20  and  C18_21
REMARK   13  A    between atoms: C19_22  and  C20_23
REMARK                            x       y       z     vdW  Elec       q    Type
REMARK                         _______ _______ _______ _____ _____    ______ ____
ROOT
ATOM      1  C8  UNL     1      14.775  51.208  58.097  0.00  0.00    +0.000 C 
ATOM      2  C9  UNL     1      13.973  52.408  58.646  0.00  0.00    +0.000 C 
ATOM      3  C10 UNL     1      14.708  52.872  59.908  0.00  0.00    +0.000 C 
ATOM      4  C11 UNL     1      15.874  51.898  60.107  0.00  0.00    +0.000 C 
ATOM      5  C12 UNL     1      16.262  51.699  61.564  0.00  0.00    +0.000 C 
ATOM      6  C13 UNL     1      15.469  50.627  59.346  0.00  0.00    +0.000 C 
ENDROOT
BRANCH   1  10
ATOM      7  C3  UNL     1      12.580  48.388  55.699  0.00  0.00    +0.000 C 
ATOM      8  C4  UNL     1      13.940  48.519  55.468  0.00  0.00    +0.000 C 
ATOM      9  C5  UNL     1      14.681  49.420  56.245  0.00  0.00    +0.000 C 
ATOM     10  C7  UNL     1      14.051  50.202  57.230  0.00  0.00    +0.000 C 
ATOM     11  C21 UNL     1      12.684  49.973  57.383  0.00  0.00    +0.000 C 
ATOM     12  N2  UNL     1      11.951  49.097  56.655  0.00  0.00    +0.000 NA
BRANCH   7  14
ATOM     13  C1  UNL     1      10.574  48.072  54.237  0.00  0.00    +0.000 C 
ATOM     14  C2  UNL     1      11.755  47.399  54.920  0.00  0.00    +0.000 C 
ENDBRANCH   7  14
BRANCH   9  15
ATOM     15  C6  UNL     1      16.130  49.436  55.939  0.00  0.00    +0.000 C 
ATOM     16  N1  UNL     1      16.914  48.419  56.105  0.00  0.00    +0.000 NA
BRANCH  16  17
ATOM     17  O1  UNL     1      18.202  48.769  55.687  0.00  0.00    +0.000 OA
ATOM     18  H   UNL     1      18.653  49.477  56.102  0.00  0.00    +0.000 HD
ENDBRANCH  16  17
ENDBRANCH   9  15
ENDBRANCH   1  10
BRANCH   6  19
ATOM     19  C14 UNL     1      14.544  49.690  60.128  0.00  0.00    +0.000 C 
ATOM     20  O2  UNL     1      13.500  50.095  60.639  0.00  0.00    +0.000 OA
BRANCH  19  21
ATOM     21  C15 UNL     1      14.988  48.233  60.208  0.00  0.00    +0.000 C 
BRANCH  21  22
ATOM     22  C16 UNL     1      14.670  47.550  61.557  0.00  0.00    +0.000 C 
BRANCH  22  23
ATOM     23  C17 UNL     1      15.820  47.717  62.574  0.00  0.00    +0.000 C 
ATOM     24  C18 UNL     1      15.620  48.845  63.577  0.00  0.00    +0.000 C 
ENDBRANCH  22  23
BRANCH  22  25
ATOM     25  C19 UNL     1      14.370  46.054  61.301  0.00  0.00    +0.000 C 
ATOM     26  C20 UNL     1      14.331  45.204  62.563  0.00  0.00    +0.000 C 
ENDBRANCH  22  25
ENDBRANCH  21  22
ENDBRANCH  19  21
ENDBRANCH   6  19
TORSDOF 9
ENDMDL
MODEL 8
REMARK VINA RESULT:    -6.157      2.555      6.235
REMARK INTER + INTRA:         -10.699
REMARK INTER:                  -9.126
REMARK INTRA:                  -1.573
REMARK UNBOUND:                -1.483
REMARK  Name = laboratorio_evolutivo\Gen5_Mutante_4.pdb
REMARK  13 active torsions:
REMARK  status: ('A' for Active; 'I' for Inactive)
REMARK    1  A    between atoms: C1_1  and  C2_2
REMARK    2  A    between atoms: C2_2  and  C3_3
REMARK    3  A    between atoms: C5_5  and  C6_6
REMARK    4  A    between atoms: N1_7  and  O1_8
REMARK    5  A    between atoms: C7_9  and  C8_10
REMARK    6  A    between atoms: C11_13  and  C12_14
REMARK    7  A    between atoms: C13_15  and  C14_16
REMARK    8  A    between atoms: C14_16  and  C15_18
REMARK    9  A    between atoms: C15_18  and  C16_19
REMARK   10  A    between atoms: C16_19  and  C17_20
REMARK   11  A    between atoms: C16_19  and  C19_22
REMARK   12  A    between atoms: C17_20  and  C18_21
REMARK   13  A    between atoms: C19_22  and  C20_23
REMARK                            x       y       z     vdW  Elec       q    Type
REMARK                         _______ _______ _______ _____ _____    ______ ____
ROOT
ATOM      1  C8  UNL     1       1.184  62.497  73.660  0.00  0.00    +0.000 C 
ATOM      2  C9  UNL     1       0.216  63.656  73.988  0.00  0.00    +0.000 C 
ATOM      3  C10 UNL     1      -0.674  63.158  75.131  0.00  0.00    +0.000 C 
ATOM      4  C11 UNL     1      -0.260  61.707  75.397  0.00  0.00    +0.000 C 
ATOM      5  C12 UNL     1      -1.393  60.832  75.910  0.00  0.00    +0.000 C 
ATOM      6  C13 UNL     1       0.409  61.237  74.097  0.00  0.00    +0.000 C 
ENDROOT
BRANCH   1  10
ATOM      7  C3  UNL     1       2.807  62.458  69.674  0.00  0.00    +0.000 C 
ATOM      8  C4  UNL     1       3.316  61.555  70.593  0.00  0.00    +0.000 C 
ATOM      9  C5  UNL     1       2.794  61.536  71.894  0.00  0.00    +0.000 C 
ATOM     10  C7  UNL     1       1.785  62.440  72.273  0.00  0.00    +0.000 C 
ATOM     11  C21 UNL     1       1.341  63.291  71.261  0.00  0.00    +0.000 C 
ATOM     12  N2  UNL     1       1.819  63.316  69.994  0.00  0.00    +0.000 NA
BRANCH   7  14
ATOM     13  C1  UNL     1       3.642  63.893  67.803  0.00  0.00    +0.000 C 
ATOM     14  C2  UNL     1       3.304  62.481  68.253  0.00  0.00    +0.000 C 
ENDBRANCH   7  14
BRANCH   9  15
ATOM     15  C6  UNL     1       3.383  60.496  72.769  0.00  0.00    +0.000 C 
ATOM     16  N1  UNL     1       4.208  59.589  72.357  0.00  0.00    +0.000 NA
BRANCH  16  17
ATOM     17  O1  UNL     1       4.590  58.798  73.445  0.00  0.00    +0.000 OA
ATOM     18  H   UNL     1       4.660  59.178  74.299  0.00  0.00    +0.000 HD
ENDBRANCH  16  17
ENDBRANCH   9  15
ENDBRANCH   1  10
BRANCH   6  19
ATOM     19  C14 UNL     1      -0.570  60.765  73.018  0.00  0.00    +0.000 C 
ATOM     20  O2  UNL     1      -1.539  61.448  72.685  0.00  0.00    +0.000 OA
BRANCH  19  21
ATOM     21  C15 UNL     1      -0.252  59.420  72.373  0.00  0.00    +0.000 C 
BRANCH  21  22
ATOM     22  C16 UNL     1       0.243  58.346  73.366  0.00  0.00    +0.000 C 
BRANCH  22  23
ATOM     23  C17 UNL     1       1.336  57.446  72.747  0.00  0.00    +0.000 C 
ATOM     24  C18 UNL     1       1.554  57.650  71.255  0.00  0.00    +0.000 C 
ENDBRANCH  22  23
BRANCH  22  25
ATOM     25  C19 UNL     1      -0.967  57.504  73.835  0.00  0.00    +0.000 C 
ATOM     26  C20 UNL     1      -0.990  57.228  75.331  0.00  0.00    +0.000 C 
ENDBRANCH  22  25
ENDBRANCH  21  22
ENDBRANCH  19  21
ENDBRANCH   6  19
TORSDOF 9
ENDMDL
MODEL 9
REMARK VINA RESULT:    -6.030      2.316      6.187
REMARK INTER + INTRA:         -10.510
REMARK INTER:                  -9.519
REMARK INTRA:                  -0.991
REMARK UNBOUND:                -1.483
REMARK  Name = laboratorio_evolutivo\Gen5_Mutante_4.pdb
REMARK  13 active torsions:
REMARK  status: ('A' for Active; 'I' for Inactive)
REMARK    1  A    between atoms: C1_1  and  C2_2
REMARK    2  A    between atoms: C2_2  and  C3_3
REMARK    3  A    between atoms: C5_5  and  C6_6
REMARK    4  A    between atoms: N1_7  and  O1_8
REMARK    5  A    between atoms: C7_9  and  C8_10
REMARK    6  A    between atoms: C11_13  and  C12_14
REMARK    7  A    between atoms: C13_15  and  C14_16
REMARK    8  A    between atoms: C14_16  and  C15_18
REMARK    9  A    between atoms: C15_18  and  C16_19
REMARK   10  A    between atoms: C16_19  and  C17_20
REMARK   11  A    between atoms: C16_19  and  C19_22
REMARK   12  A    between atoms: C17_20  and  C18_21
REMARK   13  A    between atoms: C19_22  and  C20_23
REMARK                            x       y       z     vdW  Elec       q    Type
REMARK                         _______ _______ _______ _____ _____    ______ ____
ROOT
ATOM      1  C8  UNL     1       0.219  58.986  72.373  0.00  0.00    +0.000 C 
ATOM      2  C9  UNL     1       1.160  57.859  71.893  0.00  0.00    +0.000 C 
ATOM      3  C10 UNL     1       1.243  56.852  73.045  0.00  0.00    +0.000 C 
ATOM      4  C11 UNL     1       0.413  57.442  74.190  0.00  0.00    +0.000 C 
ATOM      5  C12 UNL     1       0.910  57.047  75.572  0.00  0.00    +0.000 C 
ATOM      6  C13 UNL     1       0.357  58.950  73.909  0.00  0.00    +0.000 C 
ENDROOT
BRANCH   1  10
ATOM      7  C3  UNL     1       0.499  62.923  70.656  0.00  0.00    +0.000 C 
ATOM      8  C4  UNL     1       1.487  62.004  70.341  0.00  0.00    +0.000 C 
ATOM      9  C5  UNL     1       1.412  60.710  70.875  0.00  0.00    +0.000 C 
ATOM     10  C7  UNL     1       0.362  60.353  71.741  0.00  0.00    +0.000 C 
ATOM     11  C21 UNL     1      -0.581  61.355  71.973  0.00  0.00    +0.000 C 
ATOM     12  N2  UNL     1      -0.536  62.606  71.456  0.00  0.00    +0.000 NA
BRANCH   7  14
ATOM     13  C1  UNL     1       1.916  64.717  69.639  0.00  0.00    +0.000 C 
ATOM     14  C2  UNL     1       0.515  64.308  70.067  0.00  0.00    +0.000 C 
ENDBRANCH   7  14
BRANCH   9  15
ATOM     15  C6  UNL     1       2.495  59.805  70.428  0.00  0.00    +0.000 C 
ATOM     16  N1  UNL     1       2.817  59.622  69.188  0.00  0.00    +0.000 NA
BRANCH  16  17
ATOM     17  O1  UNL     1       3.898  58.736  69.129  0.00  0.00    +0.000 OA
ATOM     18  H   UNL     1       3.763  57.821  69.280  0.00  0.00    +0.000 HD
ENDBRANCH  16  17
ENDBRANCH   9  15
ENDBRANCH   1  10
BRANCH   6  19
ATOM     19  C14 UNL     1       1.585  59.729  74.390  0.00  0.00    +0.000 C 
ATOM     20  O2  UNL     1       2.715  59.468  73.976  0.00  0.00    +0.000 OA
BRANCH  19  21
ATOM     21  C15 UNL     1       1.313  60.852  75.386  0.00  0.00    +0.000 C 
BRANCH  21  22
ATOM     22  C16 UNL     1      -0.184  61.188  75.563  0.00  0.00    +0.000 C 
BRANCH  22  23
ATOM     23  C17 UNL     1      -0.452  62.705  75.453  0.00  0.00    +0.000 C 
ATOM     24  C18 UNL     1       0.660  63.499  74.782  0.00  0.00    +0.000 C 
ENDBRANCH  22  23
BRANCH  22  25
ATOM     25  C19 UNL     1      -0.661  60.640  76.928  0.00  0.00    +0.000 C 
ATOM     26  C20 UNL     1      -1.824  59.663  76.834  0.00  0.00    +0.000 C 
ENDBRANCH  22  25
ENDBRANCH  21  22
ENDBRANCH  19  21
ENDBRANCH   6  19
TORSDOF 9
ENDMDL
