MODEL 1
REMARK VINA RESULT:    -9.031      0.000      0.000
REMARK INTER + INTRA:         -15.714
REMARK INTER:                 -13.518
REMARK INTRA:                  -2.196
REMARK UNBOUND:                -2.196
REMARK  Name = laboratorio_evolutivo\Gen5_Mutante_3.pdb
REMARK  13 active torsions:
REMARK  status: ('A' for Active; 'I' for Inactive)
REMARK    1  A    between atoms: C1_1  and  C2_2
REMARK    2  A    between atoms: C2_2  and  C3_3
REMARK    3  A    between atoms: C3_3  and  C4_4
REMARK    4  A    between atoms: C4_4  and  C5_5
REMARK    5  A    between atoms: C4_4  and  C7_7
REMARK    6  A    between atoms: C5_5  and  C6_6
REMARK    7  A    between atoms: C7_7  and  C8_8
REMARK    8  A    between atoms: C8_8  and  C9_10
REMARK    9  A    between atoms: C10_11  and  C11_12
REMARK   10  A    between atoms: C14_15  and  C15_16
REMARK   11  A    between atoms: C17_19  and  C18_20
REMARK   12  A    between atoms: C20_22  and  C21_23
REMARK   13  A    between atoms: N2_24  and  O2_25
REMARK                            x       y       z     vdW  Elec       q    Type
REMARK                         _______ _______ _______ _____ _____    ______ ____
ROOT
ATOM      1  C9  UNL     1       1.401  67.159  66.181  0.00  0.00    +0.000 C 
ATOM      2  C10 UNL     1      -0.119  67.290  65.961  0.00  0.00    +0.000 C 
ATOM      3  C11 UNL     1      -0.960  67.590  67.191  0.00  0.00    +0.000 C 
ATOM      4  C12 UNL     1      -0.247  68.342  64.863  0.00  0.00    +0.000 C 
ATOM      5  C13 UNL     1       0.875  67.966  63.906  0.00  0.00    +0.000 C 
ATOM      6  C14 UNL     1       2.042  67.532  64.816  0.00  0.00    +0.000 C 
ENDROOT
BRANCH   6   7
ATOM      7  C15 UNL     1       2.875  66.411  64.234  0.00  0.00    +0.000 C 
ATOM      8  C16 UNL     1       2.587  65.080  64.528  0.00  0.00    +0.000 C 
ATOM      9  N1  UNL     1       3.302  64.016  64.094  0.00  0.00    +0.000 NA
ATOM     10  C17 UNL     1       4.375  64.258  63.310  0.00  0.00    +0.000 C 
ATOM     11  C18 UNL     1       5.165  63.078  62.833  0.00  0.00    +0.000 C 
ATOM     12  C19 UNL     1       4.751  65.542  62.948  0.00  0.00    +0.000 C 
ATOM     13  C20 UNL     1       4.001  66.620  63.427  0.00  0.00    +0.000 C 
BRANCH  13  14
ATOM     14  C21 UNL     1       4.392  67.977  62.997  0.00  0.00    +0.000 C 
ATOM     15  N2  UNL     1       3.998  68.619  61.936  0.00  0.00    +0.000 NA
BRANCH  15  16
ATOM     16  O2  UNL     1       3.168  67.846  61.121  0.00  0.00    +0.000 OA
ATOM     17  H   UNL     1       3.203  66.911  61.169  0.00  0.00    +0.000 HD
ENDBRANCH  15  16
ENDBRANCH  13  14
ENDBRANCH   6   7
BRANCH   1  18
ATOM     18  C8  UNL     1       1.957  68.082  67.265  0.00  0.00    +0.000 C 
ATOM     19  O1  UNL     1       2.261  69.250  67.019  0.00  0.00    +0.000 OA
BRANCH  18  20
ATOM     20  C7  UNL     1       2.197  67.459  68.632  0.00  0.00    +0.000 C 
BRANCH  20  21
ATOM     21  C4  UNL     1       2.914  66.095  68.577  0.00  0.00    +0.000 C 
BRANCH  21  22
ATOM     22  C5  UNL     1       2.091  65.064  69.379  0.00  0.00    +0.000 C 
ATOM     23  C6  UNL     1       0.684  65.531  69.727  0.00  0.00    +0.000 C 
ENDBRANCH  21  22
BRANCH  21  24
ATOM     24  C3  UNL     1       4.395  66.182  69.016  0.00  0.00    +0.000 C 
BRANCH  24  26
ATOM     25  C1  UNL     1       5.437  66.205  66.723  0.00  0.00    +0.000 C 
ATOM     26  C2  UNL     1       5.398  65.509  68.076  0.00  0.00    +0.000 C 
ENDBRANCH  24  26
ENDBRANCH  21  24
ENDBRANCH  20  21
ENDBRANCH  18  20
ENDBRANCH   1  18
TORSDOF 9
ENDMDL
MODEL 2
REMARK VINA RESULT:    -7.303      6.087      9.181
REMARK INTER + INTRA:         -13.128
REMARK INTER:                 -11.759
REMARK INTRA:                  -1.368
REMARK UNBOUND:                -2.196
REMARK  Name = laboratorio_evolutivo\Gen5_Mutante_3.pdb
REMARK  13 active torsions:
REMARK  status: ('A' for Active; 'I' for Inactive)
REMARK    1  A    between atoms: C1_1  and  C2_2
REMARK    2  A    between atoms: C2_2  and  C3_3
REMARK    3  A    between atoms: C3_3  and  C4_4
REMARK    4  A    between atoms: C4_4  and  C5_5
REMARK    5  A    between atoms: C4_4  and  C7_7
REMARK    6  A    between atoms: C5_5  and  C6_6
REMARK    7  A    between atoms: C7_7  and  C8_8
REMARK    8  A    between atoms: C8_8  and  C9_10
REMARK    9  A    between atoms: C10_11  and  C11_12
REMARK   10  A    between atoms: C14_15  and  C15_16
REMARK   11  A    between atoms: C17_19  and  C18_20
REMARK   12  A    between atoms: C20_22  and  C21_23
REMARK   13  A    between atoms: N2_24  and  O2_25
REMARK                            x       y       z     vdW  Elec       q    Type
REMARK                         _______ _______ _______ _____ _____    ______ ____
ROOT
ATOM      1  C9  UNL     1       1.509  62.168  71.579  0.00  0.00    +0.000 C 
ATOM      2  C10 UNL     1       0.249  62.923  72.044  0.00  0.00    +0.000 C 
ATOM      3  C11 UNL     1       0.093  64.352  71.549  0.00  0.00    +0.000 C 
ATOM      4  C12 UNL     1      -0.904  62.008  71.640  0.00  0.00    +0.000 C 
ATOM      5  C13 UNL     1      -0.375  60.625  71.996  0.00  0.00    +0.000 C 
ATOM      6  C14 UNL     1       1.120  60.664  71.618  0.00  0.00    +0.000 C 
ENDROOT
BRANCH   6   7
ATOM      7  C15 UNL     1       1.997  59.856  72.549  0.00  0.00    +0.000 C 
ATOM      8  C16 UNL     1       1.608  59.609  73.863  0.00  0.00    +0.000 C 
ATOM      9  N1  UNL     1       2.345  58.939  74.779  0.00  0.00    +0.000 NA
ATOM     10  C17 UNL     1       3.550  58.468  74.392  0.00  0.00    +0.000 C 
ATOM     11  C18 UNL     1       4.364  57.728  75.409  0.00  0.00    +0.000 C 
ATOM     12  C19 UNL     1       4.037  58.648  73.107  0.00  0.00    +0.000 C 
ATOM     13  C20 UNL     1       3.257  59.359  72.189  0.00  0.00    +0.000 C 
BRANCH  13  14
ATOM     14  C21 UNL     1       3.773  59.506  70.814  0.00  0.00    +0.000 C 
ATOM     15  N2  UNL     1       3.769  58.616  69.865  0.00  0.00    +0.000 NA
BRANCH  15  16
ATOM     16  O2  UNL     1       3.270  57.383  70.289  0.00  0.00    +0.000 OA
ATOM     17  H   UNL     1       3.154  56.687  69.673  0.00  0.00    +0.000 HD
ENDBRANCH  15  16
ENDBRANCH  13  14
ENDBRANCH   6   7
BRANCH   1  18
ATOM     18  C8  UNL     1       1.969  62.529  70.167  0.00  0.00    +0.000 C 
ATOM     19  O1  UNL     1       1.450  62.020  69.173  0.00  0.00    +0.000 OA
BRANCH  18  20
ATOM     20  C7  UNL     1       3.154  63.478  70.059  0.00  0.00    +0.000 C 
BRANCH  20  21
ATOM     21  C4  UNL     1       3.038  64.489  68.901  0.00  0.00    +0.000 C 
BRANCH  21  22
ATOM     22  C5  UNL     1       4.349  64.469  68.086  0.00  0.00    +0.000 C 
ATOM     23  C6  UNL     1       5.457  65.333  68.674  0.00  0.00    +0.000 C 
ENDBRANCH  21  22
BRANCH  21  24
ATOM     24  C3  UNL     1       2.630  65.902  69.383  0.00  0.00    +0.000 C 
BRANCH  24  26
ATOM     25  C1  UNL     1       2.948  68.132  68.256  0.00  0.00    +0.000 C 
ATOM     26  C2  UNL     1       2.130  66.849  68.289  0.00  0.00    +0.000 C 
ENDBRANCH  24  26
ENDBRANCH  21  24
ENDBRANCH  20  21
ENDBRANCH  18  20
ENDBRANCH   1  18
TORSDOF 9
ENDMDL
MODEL 3
REMARK VINA RESULT:    -7.273      6.110      9.290
REMARK INTER + INTRA:         -13.083
REMARK INTER:                 -11.357
REMARK INTRA:                  -1.726
REMARK UNBOUND:                -2.196
REMARK  Name = laboratorio_evolutivo\Gen5_Mutante_3.pdb
REMARK  13 active torsions:
REMARK  status: ('A' for Active; 'I' for Inactive)
REMARK    1  A    between atoms: C1_1  and  C2_2
REMARK    2  A    between atoms: C2_2  and  C3_3
REMARK    3  A    between atoms: C3_3  and  C4_4
REMARK    4  A    between atoms: C4_4  and  C5_5
REMARK    5  A    between atoms: C4_4  and  C7_7
REMARK    6  A    between atoms: C5_5  and  C6_6
REMARK    7  A    between atoms: C7_7  and  C8_8
REMARK    8  A    between atoms: C8_8  and  C9_10
REMARK    9  A    between atoms: C10_11  and  C11_12
REMARK   10  A    between atoms: C14_15  and  C15_16
REMARK   11  A    between atoms: C17_19  and  C18_20
REMARK   12  A    between atoms: C20_22  and  C21_23
REMARK   13  A    between atoms: N2_24  and  O2_25
REMARK                            x       y       z     vdW  Elec       q    Type
REMARK                         _______ _______ _______ _____ _____    ______ ____
ROOT
ATOM      1  C9  UNL     1       3.106  61.077  71.961  0.00  0.00    +0.000 C 
ATOM      2  C10 UNL     1       4.172  59.964  71.951  0.00  0.00    +0.000 C 
ATOM      3  C11 UNL     1       4.288  59.124  73.213  0.00  0.00    +0.000 C 
ATOM      4  C12 UNL     1       3.846  59.148  70.703  0.00  0.00    +0.000 C 
ATOM      5  C13 UNL     1       3.509  60.223  69.678  0.00  0.00    +0.000 C 
ATOM      6  C14 UNL     1       2.728  61.292  70.470  0.00  0.00    +0.000 C 
ENDROOT
BRANCH   6   7
ATOM      7  C15 UNL     1       2.994  62.705  69.996  0.00  0.00    +0.000 C 
ATOM      8  C16 UNL     1       4.294  63.149  69.766  0.00  0.00    +0.000 C 
ATOM      9  N1  UNL     1       4.632  64.404  69.389  0.00  0.00    +0.000 NA
ATOM     10  C17 UNL     1       3.634  65.297  69.215  0.00  0.00    +0.000 C 
ATOM     11  C18 UNL     1       4.011  66.685  68.799  0.00  0.00    +0.000 C 
ATOM     12  C19 UNL     1       2.302  64.964  69.409  0.00  0.00    +0.000 C 
ATOM     13  C20 UNL     1       1.988  63.664  69.815  0.00  0.00    +0.000 C 
BRANCH  13  14
ATOM     14  C21 UNL     1       0.563  63.316  69.976  0.00  0.00    +0.000 C 
ATOM     15  N2  UNL     1      -0.138  63.324  71.071  0.00  0.00    +0.000 NA
BRANCH  15  16
ATOM     16  O2  UNL     1       0.630  63.639  72.195  0.00  0.00    +0.000 OA
ATOM     17  H   UNL     1       1.460  64.061  72.093  0.00  0.00    +0.000 HD
ENDBRANCH  15  16
ENDBRANCH  13  14
ENDBRANCH   6   7
BRANCH   1  18
ATOM     18  C8  UNL     1       1.845  60.727  72.751  0.00  0.00    +0.000 C 
ATOM     19  O1  UNL     1       1.687  61.112  73.911  0.00  0.00    +0.000 OA
BRANCH  18  20
ATOM     20  C7  UNL     1       0.844  59.810  72.064  0.00  0.00    +0.000 C 
BRANCH  20  21
ATOM     21  C4  UNL     1       0.247  58.734  72.992  0.00  0.00    +0.000 C 
BRANCH  21  22
ATOM     22  C5  UNL     1       0.471  57.345  72.358  0.00  0.00    +0.000 C 
ATOM     23  C6  UNL     1      -0.330  56.228  73.015  0.00  0.00    +0.000 C 
ENDBRANCH  21  22
BRANCH  21  24
ATOM     24  C3  UNL     1      -1.230  59.017  73.359  0.00  0.00    +0.000 C 
BRANCH  24  26
ATOM     25  C1  UNL     1      -2.970  60.777  73.826  0.00  0.00    +0.000 C 
ATOM     26  C2  UNL     1      -1.736  60.418  73.010  0.00  0.00    +0.000 C 
ENDBRANCH  24  26
ENDBRANCH  21  24
ENDBRANCH  20  21
ENDBRANCH  18  20
ENDBRANCH   1  18
TORSDOF 9
ENDMDL
MODEL 4
REMARK VINA RESULT:    -7.221      6.926      9.952
REMARK INTER + INTRA:         -13.004
REMARK INTER:                 -11.029
REMARK INTRA:                  -1.975
REMARK UNBOUND:                -2.196
REMARK  Name = laboratorio_evolutivo\Gen5_Mutante_3.pdb
REMARK  13 active torsions:
REMARK  status: ('A' for Active; 'I' for Inactive)
REMARK    1  A    between atoms: C1_1  and  C2_2
REMARK    2  A    between atoms: C2_2  and  C3_3
REMARK    3  A    between atoms: C3_3  and  C4_4
REMARK    4  A    between atoms: C4_4  and  C5_5
REMARK    5  A    between atoms: C4_4  and  C7_7
REMARK    6  A    between atoms: C5_5  and  C6_6
REMARK    7  A    between atoms: C7_7  and  C8_8
REMARK    8  A    between atoms: C8_8  and  C9_10
REMARK    9  A    between atoms: C10_11  and  C11_12
REMARK   10  A    between atoms: C14_15  and  C15_16
REMARK   11  A    between atoms: C17_19  and  C18_20
REMARK   12  A    between atoms: C20_22  and  C21_23
REMARK   13  A    between atoms: N2_24  and  O2_25
REMARK                            x       y       z     vdW  Elec       q    Type
REMARK                         _______ _______ _______ _____ _____    ______ ____
ROOT
ATOM      1  C9  UNL     1       1.421  61.125  72.753  0.00  0.00    +0.000 C 
ATOM      2  C10 UNL     1       0.567  62.251  73.367  0.00  0.00    +0.000 C 
ATOM      3  C11 UNL     1       1.288  63.549  73.694  0.00  0.00    +0.000 C 
ATOM      4  C12 UNL     1      -0.585  62.425  72.381  0.00  0.00    +0.000 C 
ATOM      5  C13 UNL     1      -0.933  60.988  72.016  0.00  0.00    +0.000 C 
ATOM      6  C14 UNL     1       0.425  60.262  71.930  0.00  0.00    +0.000 C 
ENDROOT
BRANCH   6   7
ATOM      7  C15 UNL     1       0.370  58.825  72.398  0.00  0.00    +0.000 C 
ATOM      8  C16 UNL     1      -0.537  58.426  73.377  0.00  0.00    +0.000 C 
ATOM      9  N1  UNL     1      -0.627  57.178  73.891  0.00  0.00    +0.000 NA
ATOM     10  C17 UNL     1       0.222  56.241  73.418  0.00  0.00    +0.000 C 
ATOM     11  C18 UNL     1       0.121  54.860  73.990  0.00  0.00    +0.000 C 
ATOM     12  C19 UNL     1       1.163  56.522  72.439  0.00  0.00    +0.000 C 
ATOM     13  C20 UNL     1       1.241  57.826  71.940  0.00  0.00    +0.000 C 
BRANCH  13  14
ATOM     14  C21 UNL     1       2.219  58.098  70.869  0.00  0.00    +0.000 C 
ATOM     15  N2  UNL     1       3.480  58.389  71.000  0.00  0.00    +0.000 NA
BRANCH  15  16
ATOM     16  O2  UNL     1       3.866  58.511  72.338  0.00  0.00    +0.000 OA
ATOM     17  H   UNL     1       4.078  57.746  72.835  0.00  0.00    +0.000 HD
ENDBRANCH  15  16
ENDBRANCH  13  14
ENDBRANCH   6   7
BRANCH   1  18
ATOM     18  C8  UNL     1       2.536  61.619  71.831  0.00  0.00    +0.000 C 
ATOM     19  O1  UNL     1       3.705  61.681  72.214  0.00  0.00    +0.000 OA
BRANCH  18  20
ATOM     20  C7  UNL     1       2.113  62.111  70.454  0.00  0.00    +0.000 C 
BRANCH  20  21
ATOM     21  C4  UNL     1       2.536  63.563  70.156  0.00  0.00    +0.000 C 
BRANCH  21  22
ATOM     22  C5  UNL     1       1.273  64.404  69.869  0.00  0.00    +0.000 C 
ATOM     23  C6  UNL     1       1.567  65.795  69.323  0.00  0.00    +0.000 C 
ENDBRANCH  21  22
BRANCH  21  24
ATOM     24  C3  UNL     1       3.607  63.655  69.042  0.00  0.00    +0.000 C 
BRANCH  24  26
ATOM     25  C1  UNL     1       5.332  65.463  68.727  0.00  0.00    +0.000 C 
ATOM     26  C2  UNL     1       4.969  64.194  69.485  0.00  0.00    +0.000 C 
ENDBRANCH  24  26
ENDBRANCH  21  24
ENDBRANCH  20  21
ENDBRANCH  18  20
ENDBRANCH   1  18
TORSDOF 9
ENDMDL
MODEL 5
REMARK VINA RESULT:    -7.009      6.226      9.780
REMARK INTER + INTRA:         -12.687
REMARK INTER:                 -11.042
REMARK INTRA:                  -1.646
REMARK UNBOUND:                -2.196
REMARK  Name = laboratorio_evolutivo\Gen5_Mutante_3.pdb
REMARK  13 active torsions:
REMARK  status: ('A' for Active; 'I' for Inactive)
REMARK    1  A    between atoms: C1_1  and  C2_2
REMARK    2  A    between atoms: C2_2  and  C3_3
REMARK    3  A    between atoms: C3_3  and  C4_4
REMARK    4  A    between atoms: C4_4  and  C5_5
REMARK    5  A    between atoms: C4_4  and  C7_7
REMARK    6  A    between atoms: C5_5  and  C6_6
REMARK    7  A    between atoms: C7_7  and  C8_8
REMARK    8  A    between atoms: C8_8  and  C9_10
REMARK    9  A    between atoms: C10_11  and  C11_12
REMARK   10  A    between atoms: C14_15  and  C15_16
REMARK   11  A    between atoms: C17_19  and  C18_20
REMARK   12  A    between atoms: C20_22  and  C21_23
REMARK   13  A    between atoms: N2_24  and  O2_25
REMARK                            x       y       z     vdW  Elec       q    Type
REMARK                         _______ _______ _______ _____ _____    ______ ____
ROOT
ATOM      1  C9  UNL     1       2.701  60.542  70.264  0.00  0.00    +0.000 C 
ATOM      2  C10 UNL     1       4.216  60.334  70.071  0.00  0.00    +0.000 C 
ATOM      3  C11 UNL     1       4.791  60.737  68.722  0.00  0.00    +0.000 C 
ATOM      4  C12 UNL     1       4.847  61.072  71.248  0.00  0.00    +0.000 C 
ATOM      5  C13 UNL     1       3.924  60.710  72.404  0.00  0.00    +0.000 C 
ATOM      6  C14 UNL     1       2.507  60.716  71.795  0.00  0.00    +0.000 C 
ENDROOT
BRANCH   6   7
ATOM      7  C15 UNL     1       1.591  59.669  72.392  0.00  0.00    +0.000 C 
ATOM      8  C16 UNL     1       2.103  58.477  72.898  0.00  0.00    +0.000 C 
ATOM      9  N1  UNL     1       1.360  57.466  73.405  0.00  0.00    +0.000 NA
ATOM     10  C17 UNL     1       0.019  57.623  73.430  0.00  0.00    +0.000 C 
ATOM     11  C18 UNL     1      -0.800  56.501  73.991  0.00  0.00    +0.000 C 
ATOM     12  C19 UNL     1      -0.600  58.770  72.959  0.00  0.00    +0.000 C 
ATOM     13  C20 UNL     1       0.195  59.789  72.426  0.00  0.00    +0.000 C 
BRANCH  13  14
ATOM     14  C21 UNL     1      -0.477  61.021  71.967  0.00  0.00    +0.000 C 
ATOM     15  N2  UNL     1      -0.683  62.113  72.644  0.00  0.00    +0.000 NA
BRANCH  15  16
ATOM     16  O2  UNL     1      -0.255  62.009  73.970  0.00  0.00    +0.000 OA
ATOM     17  H   UNL     1      -0.146  61.166  74.362  0.00  0.00    +0.000 HD
ENDBRANCH  15  16
ENDBRANCH  13  14
ENDBRANCH   6   7
BRANCH   1  18
ATOM     18  C8  UNL     1       2.144  61.771  69.546  0.00  0.00    +0.000 C 
ATOM     19  O1  UNL     1       1.601  61.679  68.444  0.00  0.00    +0.000 OA
BRANCH  18  20
ATOM     20  C7  UNL     1       2.375  63.116  70.220  0.00  0.00    +0.000 C 
BRANCH  20  21
ATOM     21  C4  UNL     1       2.912  64.204  69.269  0.00  0.00    +0.000 C 
BRANCH  21  22
ATOM     22  C5  UNL     1       4.427  64.377  69.511  0.00  0.00    +0.000 C 
ATOM     23  C6  UNL     1       5.053  65.518  68.721  0.00  0.00    +0.000 C 
ENDBRANCH  21  22
BRANCH  21  24
ATOM     24  C3  UNL     1       2.114  65.526  69.365  0.00  0.00    +0.000 C 
BRANCH  24  26
ATOM     25  C1  UNL     1      -0.270  66.169  68.869  0.00  0.00    +0.000 C 
ATOM     26  C2  UNL     1       0.651  65.380  69.789  0.00  0.00    +0.000 C 
ENDBRANCH  24  26
ENDBRANCH  21  24
ENDBRANCH  20  21
ENDBRANCH  18  20
ENDBRANCH   1  18
TORSDOF 9
ENDMDL
MODEL 6
REMARK VINA RESULT:    -6.549      4.806      7.831
REMARK INTER + INTRA:         -11.998
REMARK INTER:                 -10.844
REMARK INTRA:                  -1.155
REMARK UNBOUND:                -2.196
REMARK  Name = laboratorio_evolutivo\Gen5_Mutante_3.pdb
REMARK  13 active torsions:
REMARK  status: ('A' for Active; 'I' for Inactive)
REMARK    1  A    between atoms: C1_1  and  C2_2
REMARK    2  A    between atoms: C2_2  and  C3_3
REMARK    3  A    between atoms: C3_3  and  C4_4
REMARK    4  A    between atoms: C4_4  and  C5_5
REMARK    5  A    between atoms: C4_4  and  C7_7
REMARK    6  A    between atoms: C5_5  and  C6_6
REMARK    7  A    between atoms: C7_7  and  C8_8
REMARK    8  A    between atoms: C8_8  and  C9_10
REMARK    9  A    between atoms: C10_11  and  C11_12
REMARK   10  A    between atoms: C14_15  and  C15_16
REMARK   11  A    between atoms: C17_19  and  C18_20
REMARK   12  A    between atoms: C20_22  and  C21_23
REMARK   13  A    between atoms: N2_24  and  O2_25
REMARK                            x       y       z     vdW  Elec       q    Type
REMARK                         _______ _______ _______ _____ _____    ______ ____
ROOT
ATOM      1  C9  UNL     1       3.423  62.332  70.747  0.00  0.00    +0.000 C 
ATOM      2  C10 UNL     1       4.470  61.214  70.583  0.00  0.00    +0.000 C 
ATOM      3  C11 UNL     1       4.790  60.395  71.823  0.00  0.00    +0.000 C 
ATOM      4  C12 UNL     1       3.943  60.379  69.419  0.00  0.00    +0.000 C 
ATOM      5  C13 UNL     1       3.446  61.438  68.445  0.00  0.00    +0.000 C 
ATOM      6  C14 UNL     1       2.807  62.524  69.334  0.00  0.00    +0.000 C 
ENDROOT
BRANCH   6   7
ATOM      7  C15 UNL     1       2.994  63.927  68.799  0.00  0.00    +0.000 C 
ATOM      8  C16 UNL     1       4.013  64.217  67.895  0.00  0.00    +0.000 C 
ATOM      9  N1  UNL     1       4.287  65.446  67.400  0.00  0.00    +0.000 NA
ATOM     10  C17 UNL     1       3.511  66.474  67.807  0.00  0.00    +0.000 C 
ATOM     11  C18 UNL     1       3.818  67.834  67.259  0.00  0.00    +0.000 C 
ATOM     12  C19 UNL     1       2.464  66.301  68.699  0.00  0.00    +0.000 C 
ATOM     13  C20 UNL     1       2.218  65.021  69.204  0.00  0.00    +0.000 C 
BRANCH  13  14
ATOM     14  C21 UNL     1       1.073  64.849  70.120  0.00  0.00    +0.000 C 
ATOM     15  N2  UNL     1      -0.172  65.152  69.901  0.00  0.00    +0.000 NA
BRANCH  15  16
ATOM     16  O2  UNL     1      -0.362  65.774  68.664  0.00  0.00    +0.000 OA
ATOM     17  H   UNL     1      -1.206  65.760  68.258  0.00  0.00    +0.000 HD
ENDBRANCH  15  16
ENDBRANCH  13  14
ENDBRANCH   6   7
BRANCH   1  18
ATOM     18  C8  UNL     1       2.307  62.001  71.739  0.00  0.00    +0.000 C 
ATOM     19  O1  UNL     1       2.285  62.494  72.867  0.00  0.00    +0.000 OA
BRANCH  18  20
ATOM     20  C7  UNL     1       1.283  60.969  71.291  0.00  0.00    +0.000 C 
BRANCH  20  21
ATOM     21  C4  UNL     1       0.542  60.282  72.455  0.00  0.00    +0.000 C 
BRANCH  21  22
ATOM     22  C5  UNL     1       1.036  58.824  72.573  0.00  0.00    +0.000 C 
ATOM     23  C6  UNL     1       1.674  58.282  71.300  0.00  0.00    +0.000 C 
ENDBRANCH  21  22
BRANCH  21  24
ATOM     24  C3  UNL     1      -0.997  60.406  72.338  0.00  0.00    +0.000 C 
BRANCH  24  26
ATOM     25  C1  UNL     1      -0.802  61.813  74.419  0.00  0.00    +0.000 C 
ATOM     26  C2  UNL     1      -1.711  60.912  73.594  0.00  0.00    +0.000 C 
ENDBRANCH  24  26
ENDBRANCH  21  24
ENDBRANCH  20  21
ENDBRANCH  18  20
ENDBRANCH   1  18
TORSDOF 9
ENDMDL
MODEL 7
REMARK VINA RESULT:    -6.444      6.876      9.557
REMARK INTER + INTRA:         -11.843
REMARK INTER:                  -9.553
REMARK INTRA:                  -2.290
REMARK UNBOUND:                -2.196
REMARK  Name = laboratorio_evolutivo\Gen5_Mutante_3.pdb
REMARK  13 active torsions:
REMARK  status: ('A' for Active; 'I' for Inactive)
REMARK    1  A    between atoms: C1_1  and  C2_2
REMARK    2  A    between atoms: C2_2  and  C3_3
REMARK    3  A    between atoms: C3_3  and  C4_4
REMARK    4  A    between atoms: C4_4  and  C5_5
REMARK    5  A    between atoms: C4_4  and  C7_7
REMARK    6  A    between atoms: C5_5  and  C6_6
REMARK    7  A    between atoms: C7_7  and  C8_8
REMARK    8  A    between atoms: C8_8  and  C9_10
REMARK    9  A    between atoms: C10_11  and  C11_12
REMARK   10  A    between atoms: C14_15  and  C15_16
REMARK   11  A    between atoms: C17_19  and  C18_20
REMARK   12  A    between atoms: C20_22  and  C21_23
REMARK   13  A    between atoms: N2_24  and  O2_25
REMARK                            x       y       z     vdW  Elec       q    Type
REMARK                         _______ _______ _______ _____ _____    ______ ____
ROOT
ATOM      1  C9  UNL     1       1.244  60.664  71.650  0.00  0.00    +0.000 C 
ATOM      2  C10 UNL     1      -0.043  60.969  72.441  0.00  0.00    +0.000 C 
ATOM      3  C11 UNL     1      -0.973  59.796  72.704  0.00  0.00    +0.000 C 
ATOM      4  C12 UNL     1       0.454  61.650  73.714  0.00  0.00    +0.000 C 
ATOM      5  C13 UNL     1       1.553  62.567  73.196  0.00  0.00    +0.000 C 
ATOM      6  C14 UNL     1       2.260  61.752  72.093  0.00  0.00    +0.000 C 
ENDROOT
BRANCH   6   7
ATOM      7  C15 UNL     1       2.750  62.600  70.939  0.00  0.00    +0.000 C 
ATOM      8  C16 UNL     1       1.917  63.541  70.339  0.00  0.00    +0.000 C 
ATOM      9  N1  UNL     1       2.250  64.309  69.276  0.00  0.00    +0.000 NA
ATOM     10  C17 UNL     1       3.486  64.158  68.755  0.00  0.00    +0.000 C 
ATOM     11  C18 UNL     1       3.851  65.008  67.577  0.00  0.00    +0.000 C 
ATOM     12  C19 UNL     1       4.402  63.256  69.275  0.00  0.00    +0.000 C 
ATOM     13  C20 UNL     1       4.021  62.466  70.364  0.00  0.00    +0.000 C 
BRANCH  13  14
ATOM     14  C21 UNL     1       5.023  61.542  70.930  0.00  0.00    +0.000 C 
ATOM     15  N2  UNL     1       5.204  60.289  70.633  0.00  0.00    +0.000 NA
BRANCH  15  16
ATOM     16  O2  UNL     1       4.261  59.813  69.719  0.00  0.00    +0.000 OA
ATOM     17  H   UNL     1       3.358  59.757  69.963  0.00  0.00    +0.000 HD
ENDBRANCH  15  16
ENDBRANCH  13  14
ENDBRANCH   6   7
BRANCH   1  18
ATOM     18  C8  UNL     1       1.836  59.283  71.930  0.00  0.00    +0.000 C 
ATOM     19  O1  UNL     1       1.694  58.351  71.137  0.00  0.00    +0.000 OA
BRANCH  18  20
ATOM     20  C7  UNL     1       2.528  59.098  73.273  0.00  0.00    +0.000 C 
BRANCH  20  21
ATOM     21  C4  UNL     1       1.753  58.195  74.253  0.00  0.00    +0.000 C 
BRANCH  21  22
ATOM     22  C5  UNL     1       1.726  58.870  75.641  0.00  0.00    +0.000 C 
ATOM     23  C6  UNL     1       0.392  58.743  76.365  0.00  0.00    +0.000 C 
ENDBRANCH  21  22
BRANCH  21  24
ATOM     24  C3  UNL     1       2.292  56.745  74.280  0.00  0.00    +0.000 C 
BRANCH  24  26
ATOM     25  C1  UNL     1      -0.009  56.248  73.384  0.00  0.00    +0.000 C 
ATOM     26  C2  UNL     1       1.389  55.697  73.625  0.00  0.00    +0.000 C 
ENDBRANCH  24  26
ENDBRANCH  21  24
ENDBRANCH  20  21
ENDBRANCH  18  20
ENDBRANCH   1  18
TORSDOF 9
ENDMDL
MODEL 8
REMARK VINA RESULT:    -6.431      6.401     10.080
REMARK INTER + INTRA:         -11.822
REMARK INTER:                 -10.481
REMARK INTRA:                  -1.340
REMARK UNBOUND:                -2.196
REMARK  Name = laboratorio_evolutivo\Gen5_Mutante_3.pdb
REMARK  13 active torsions:
REMARK  status: ('A' for Active; 'I' for Inactive)
REMARK    1  A    between atoms: C1_1  and  C2_2
REMARK    2  A    between atoms: C2_2  and  C3_3
REMARK    3  A    between atoms: C3_3  and  C4_4
REMARK    4  A    between atoms: C4_4  and  C5_5
REMARK    5  A    between atoms: C4_4  and  C7_7
REMARK    6  A    between atoms: C5_5  and  C6_6
REMARK    7  A    between atoms: C7_7  and  C8_8
REMARK    8  A    between atoms: C8_8  and  C9_10
REMARK    9  A    between atoms: C10_11  and  C11_12
REMARK   10  A    between atoms: C14_15  and  C15_16
REMARK   11  A    between atoms: C17_19  and  C18_20
REMARK   12  A    between atoms: C20_22  and  C21_23
REMARK   13  A    between atoms: N2_24  and  O2_25
REMARK                            x       y       z     vdW  Elec       q    Type
REMARK                         _______ _______ _______ _____ _____    ______ ____
ROOT
ATOM      1  C9  UNL     1       1.735  60.239  70.908  0.00  0.00    +0.000 C 
ATOM      2  C10 UNL     1       2.421  58.985  70.333  0.00  0.00    +0.000 C 
ATOM      3  C11 UNL     1       3.148  59.155  69.009  0.00  0.00    +0.000 C 
ATOM      4  C12 UNL     1       3.321  58.501  71.467  0.00  0.00    +0.000 C 
ATOM      5  C13 UNL     1       2.443  58.689  72.696  0.00  0.00    +0.000 C 
ATOM      6  C14 UNL     1       1.687  60.010  72.443  0.00  0.00    +0.000 C 
ENDROOT
BRANCH   6   7
ATOM      7  C15 UNL     1       0.277  60.011  72.993  0.00  0.00    +0.000 C 
ATOM      8  C16 UNL     1      -0.392  58.816  73.245  0.00  0.00    +0.000 C 
ATOM      9  N1  UNL     1      -1.666  58.718  73.690  0.00  0.00    +0.000 NA
ATOM     10  C17 UNL     1      -2.344  59.865  73.912  0.00  0.00    +0.000 C 
ATOM     11  C18 UNL     1      -3.755  59.752  74.403  0.00  0.00    +0.000 C 
ATOM     12  C19 UNL     1      -1.776  61.111  73.702  0.00  0.00    +0.000 C 
ATOM     13  C20 UNL     1      -0.462  61.178  73.226  0.00  0.00    +0.000 C 
BRANCH  13  14
ATOM     14  C21 UNL     1       0.140  62.513  73.048  0.00  0.00    +0.000 C 
ATOM     15  N2  UNL     1       0.960  63.129  73.848  0.00  0.00    +0.000 NA
BRANCH  15  16
ATOM     16  O2  UNL     1       1.196  62.414  75.025  0.00  0.00    +0.000 OA
ATOM     17  H   UNL     1       0.500  62.275  75.637  0.00  0.00    +0.000 HD
ENDBRANCH  15  16
ENDBRANCH  13  14
ENDBRANCH   6   7
BRANCH   1  18
ATOM     18  C8  UNL     1       2.477  61.544  70.620  0.00  0.00    +0.000 C 
ATOM     19  O1  UNL     1       3.542  61.813  71.177  0.00  0.00    +0.000 OA
BRANCH  18  20
ATOM     20  C7  UNL     1       1.789  62.526  69.682  0.00  0.00    +0.000 C 
BRANCH  20  21
ATOM     21  C4  UNL     1       2.118  64.003  69.978  0.00  0.00    +0.000 C 
BRANCH  21  22
ATOM     22  C5  UNL     1       0.798  64.786  70.145  0.00  0.00    +0.000 C 
ATOM     23  C6  UNL     1       0.658  65.972  69.201  0.00  0.00    +0.000 C 
ENDBRANCH  21  22
BRANCH  21  24
ATOM     24  C3  UNL     1       3.076  64.621  68.931  0.00  0.00    +0.000 C 
BRANCH  24  26
ATOM     25  C1  UNL     1       5.400  65.500  68.516  0.00  0.00    +0.000 C 
ATOM     26  C2  UNL     1       4.568  64.436  69.218  0.00  0.00    +0.000 C 
ENDBRANCH  24  26
ENDBRANCH  21  24
ENDBRANCH  20  21
ENDBRANCH  18  20
ENDBRANCH   1  18
TORSDOF 9
ENDMDL
MODEL 9
REMARK VINA RESULT:    -6.288     19.951     22.516
REMARK INTER + INTRA:         -11.608
REMARK INTER:                  -9.111
REMARK INTRA:                  -2.498
REMARK UNBOUND:                -2.196
REMARK  Name = laboratorio_evolutivo\Gen5_Mutante_3.pdb
REMARK  13 active torsions:
REMARK  status: ('A' for Active; 'I' for Inactive)
REMARK    1  A    between atoms: C1_1  and  C2_2
REMARK    2  A    between atoms: C2_2  and  C3_3
REMARK    3  A    between atoms: C3_3  and  C4_4
REMARK    4  A    between atoms: C4_4  and  C5_5
REMARK    5  A    between atoms: C4_4  and  C7_7
REMARK    6  A    between atoms: C5_5  and  C6_6
REMARK    7  A    between atoms: C7_7  and  C8_8
REMARK    8  A    between atoms: C8_8  and  C9_10
REMARK    9  A    between atoms: C10_11  and  C11_12
REMARK   10  A    between atoms: C14_15  and  C15_16
REMARK   11  A    between atoms: C17_19  and  C18_20
REMARK   12  A    between atoms: C20_22  and  C21_23
REMARK   13  A    between atoms: N2_24  and  O2_25
REMARK                            x       y       z     vdW  Elec       q    Type
REMARK                         _______ _______ _______ _____ _____    ______ ____
ROOT
ATOM      1  C9  UNL     1      14.980  49.192  60.966  0.00  0.00    +0.000 C 
ATOM      2  C10 UNL     1      15.736  48.689  62.211  0.00  0.00    +0.000 C 
ATOM      3  C11 UNL     1      15.827  49.650  63.385  0.00  0.00    +0.000 C 
ATOM      4  C12 UNL     1      15.052  47.369  62.554  0.00  0.00    +0.000 C 
ATOM      5  C13 UNL     1      14.839  46.736  61.186  0.00  0.00    +0.000 C 
ATOM      6  C14 UNL     1      14.457  47.910  60.262  0.00  0.00    +0.000 C 
ENDROOT
BRANCH   6   7
ATOM      7  C15 UNL     1      14.983  47.761  58.850  0.00  0.00    +0.000 C 
ATOM      8  C16 UNL     1      16.230  48.269  58.495  0.00  0.00    +0.000 C 
ATOM      9  N1  UNL     1      16.761  48.226  57.251  0.00  0.00    +0.000 NA
ATOM     10  C17 UNL     1      16.031  47.641  56.276  0.00  0.00    +0.000 C 
ATOM     11  C18 UNL     1      16.621  47.597  54.900  0.00  0.00    +0.000 C 
ATOM     12  C19 UNL     1      14.780  47.096  56.517  0.00  0.00    +0.000 C 
ATOM     13  C20 UNL     1      14.252  47.172  57.810  0.00  0.00    +0.000 C 
BRANCH  13  14
ATOM     14  C21 UNL     1      12.937  46.549  58.056  0.00  0.00    +0.000 C 
ATOM     15  N2  UNL     1      11.771  47.125  58.049  0.00  0.00    +0.000 NA
BRANCH  15  16
ATOM     16  O2  UNL     1      11.858  48.505  57.847  0.00  0.00    +0.000 OA
ATOM     17  H   UNL     1      11.446  48.897  57.102  0.00  0.00    +0.000 HD
ENDBRANCH  15  16
ENDBRANCH  13  14
ENDBRANCH   6   7
BRANCH   1  18
ATOM     18  C8  UNL     1      13.797  50.107  61.282  0.00  0.00    +0.000 C 
ATOM     19  O1  UNL     1      12.788  49.680  61.844  0.00  0.00    +0.000 OA
BRANCH  18  20
ATOM     20  C7  UNL     1      13.896  51.543  60.786  0.00  0.00    +0.000 C 
BRANCH  20  21
ATOM     21  C4  UNL     1      14.828  51.719  59.571  0.00  0.00    +0.000 C 
BRANCH  21  22
ATOM     22  C5  UNL     1      15.741  52.940  59.813  0.00  0.00    +0.000 C 
ATOM     23  C6  UNL     1      16.402  52.956  61.185  0.00  0.00    +0.000 C 
ENDBRANCH  21  22
BRANCH  21  24
ATOM     24  C3  UNL     1      14.056  51.779  58.231  0.00  0.00    +0.000 C 
BRANCH  24  26
ATOM     25  C1  UNL     1      13.913  50.599  56.010  0.00  0.00    +0.000 C 
ATOM     26  C2  UNL     1      14.832  51.295  57.004  0.00  0.00    +0.000 C 
ENDBRANCH  24  26
ENDBRANCH  21  24
ENDBRANCH  20  21
ENDBRANCH  18  20
ENDBRANCH   1  18
TORSDOF 9
ENDMDL
