MODEL 1
REMARK VINA RESULT:    -7.214      0.000      0.000
REMARK INTER + INTRA:         -12.132
REMARK INTER:                 -10.798
REMARK INTRA:                  -1.334
REMARK UNBOUND:                -1.334
REMARK  Name = laboratorio_evolutivo\Gen5_Mutante_3.pdb
REMARK  13 active torsions:
REMARK  status: ('A' for Active; 'I' for Inactive)
REMARK    1  A    between atoms: C1_1  and  C2_2
REMARK    2  A    between atoms: C2_2  and  C3_3
REMARK    3  A    between atoms: C3_3  and  C4_4
REMARK    4  A    between atoms: C4_4  and  C5_5
REMARK    5  A    between atoms: C4_4  and  C7_7
REMARK    6  A    between atoms: C5_5  and  C6_6
REMARK    7  A    between atoms: C7_7  and  C8_8
REMARK    8  A    between atoms: C8_8  and  C9_10
REMARK    9  A    between atoms: C10_11  and  C11_12
REMARK   10  A    between atoms: C14_15  and  C15_16
REMARK   11  A    between atoms: C17_19  and  C18_20
REMARK   12  A    between atoms: C20_22  and  C21_23
REMARK   13  A    between atoms: N2_24  and  O2_25
REMARK                            x       y       z     vdW  Elec       q    Type
REMARK                         _______ _______ _______ _____ _____    ______ ____
ROOT
ATOM      1  C9  UNL     1       7.572  -5.299  10.976  0.00  0.00    +0.000 C 
ATOM      2  C10 UNL     1       6.092  -5.375  11.401  0.00  0.00    +0.000 C 
ATOM      3  C11 UNL     1       5.794  -6.114  12.695  0.00  0.00    +0.000 C 
ATOM      4  C12 UNL     1       5.633  -3.919  11.409  0.00  0.00    +0.000 C 
ATOM      5  C13 UNL     1       6.289  -3.353  10.158  0.00  0.00    +0.000 C 
ATOM      6  C14 UNL     1       7.680  -4.016  10.107  0.00  0.00    +0.000 C 
ENDROOT
BRANCH   6   7
ATOM      7  C15 UNL     1       8.159  -4.302   8.700  0.00  0.00    +0.000 C 
ATOM      8  C16 UNL     1       7.365  -5.014   7.805  0.00  0.00    +0.000 C 
ATOM      9  N1  UNL     1       7.727  -5.357   6.547  0.00  0.00    +0.000 NA
ATOM     10  C17 UNL     1       8.951  -4.977   6.120  0.00  0.00    +0.000 C 
ATOM     11  C18 UNL     1       9.349  -5.360   4.728  0.00  0.00    +0.000 C 
ATOM     12  C19 UNL     1       9.823  -4.258   6.922  0.00  0.00    +0.000 C 
ATOM     13  C20 UNL     1       9.425  -3.934   8.223  0.00  0.00    +0.000 C 
BRANCH  13  14
ATOM     14  C21 UNL     1      10.350  -3.133   9.048  0.00  0.00    +0.000 C 
ATOM     15  N2  UNL     1      10.417  -1.837   9.136  0.00  0.00    +0.000 NA
BRANCH  15  16
ATOM     16  O2  UNL     1       9.531  -1.195   8.268  0.00  0.00    +0.000 OA
ATOM     17  H   UNL     1       8.842  -0.662   8.612  0.00  0.00    +0.000 HD
ENDBRANCH  15  16
ENDBRANCH  13  14
ENDBRANCH   6   7
BRANCH   1  18
ATOM     18  C8  UNL     1       8.552  -5.195  12.145  0.00  0.00    +0.000 C 
ATOM     19  O1  UNL     1       8.718  -6.131  12.928  0.00  0.00    +0.000 OA
BRANCH  18  20
ATOM     20  C7  UNL     1       9.239  -3.851  12.340  0.00  0.00    +0.000 C 
BRANCH  20  21
ATOM     21  C4  UNL     1      10.604  -3.947  13.050  0.00  0.00    +0.000 C 
BRANCH  21  22
ATOM     22  C5  UNL     1      10.892  -2.608  13.763  0.00  0.00    +0.000 C 
ATOM     23  C6  UNL     1      11.138  -2.745  15.260  0.00  0.00    +0.000 C 
ENDBRANCH  21  22
BRANCH  21  24
ATOM     24  C3  UNL     1      11.739  -4.400  12.101  0.00  0.00    +0.000 C 
BRANCH  24  26
ATOM     25  C1  UNL     1      14.181  -3.888  11.756  0.00  0.00    +0.000 C 
ATOM     26  C2  UNL     1      12.768  -3.323  11.748  0.00  0.00    +0.000 C 
ENDBRANCH  24  26
ENDBRANCH  21  24
ENDBRANCH  20  21
ENDBRANCH  18  20
ENDBRANCH   1  18
TORSDOF 9
ENDMDL
MODEL 2
REMARK VINA RESULT:    -6.850     10.919     13.880
REMARK INTER + INTRA:         -11.588
REMARK INTER:                  -9.302
REMARK INTRA:                  -2.285
REMARK UNBOUND:                -1.334
REMARK  Name = laboratorio_evolutivo\Gen5_Mutante_3.pdb
REMARK  13 active torsions:
REMARK  status: ('A' for Active; 'I' for Inactive)
REMARK    1  A    between atoms: C1_1  and  C2_2
REMARK    2  A    between atoms: C2_2  and  C3_3
REMARK    3  A    between atoms: C3_3  and  C4_4
REMARK    4  A    between atoms: C4_4  and  C5_5
REMARK    5  A    between atoms: C4_4  and  C7_7
REMARK    6  A    between atoms: C5_5  and  C6_6
REMARK    7  A    between atoms: C7_7  and  C8_8
REMARK    8  A    between atoms: C8_8  and  C9_10
REMARK    9  A    between atoms: C10_11  and  C11_12
REMARK   10  A    between atoms: C14_15  and  C15_16
REMARK   11  A    between atoms: C17_19  and  C18_20
REMARK   12  A    between atoms: C20_22  and  C21_23
REMARK   13  A    between atoms: N2_24  and  O2_25
REMARK                            x       y       z     vdW  Elec       q    Type
REMARK                         _______ _______ _______ _____ _____    ______ ____
ROOT
ATOM      1  C9  UNL     1       2.213   0.880  20.349  0.00  0.00    +0.000 C 
ATOM      2  C10 UNL     1       3.228   1.091  21.490  0.00  0.00    +0.000 C 
ATOM      3  C11 UNL     1       4.129   2.310  21.381  0.00  0.00    +0.000 C 
ATOM      4  C12 UNL     1       2.374   1.074  22.755  0.00  0.00    +0.000 C 
ATOM      5  C13 UNL     1       1.392  -0.057  22.482  0.00  0.00    +0.000 C 
ATOM      6  C14 UNL     1       1.050   0.069  20.983  0.00  0.00    +0.000 C 
ENDROOT
BRANCH   6   7
ATOM      7  C15 UNL     1       0.826  -1.263  20.303  0.00  0.00    +0.000 C 
ATOM      8  C16 UNL     1       1.861  -2.188  20.182  0.00  0.00    +0.000 C 
ATOM      9  N1  UNL     1       1.768  -3.380  19.550  0.00  0.00    +0.000 NA
ATOM     10  C17 UNL     1       0.580  -3.707  18.997  0.00  0.00    +0.000 C 
ATOM     11  C18 UNL     1       0.482  -5.028  18.297  0.00  0.00    +0.000 C 
ATOM     12  C19 UNL     1      -0.521  -2.868  19.061  0.00  0.00    +0.000 C 
ATOM     13  C20 UNL     1      -0.387  -1.635  19.707  0.00  0.00    +0.000 C 
BRANCH  13  14
ATOM     14  C21 UNL     1      -1.581  -0.772  19.802  0.00  0.00    +0.000 C 
ATOM     15  N2  UNL     1      -2.484  -0.766  20.738  0.00  0.00    +0.000 NA
BRANCH  15  16
ATOM     16  O2  UNL     1      -2.272  -1.763  21.692  0.00  0.00    +0.000 OA
ATOM     17  H   UNL     1      -2.218  -1.539  22.600  0.00  0.00    +0.000 HD
ENDBRANCH  15  16
ENDBRANCH  13  14
ENDBRANCH   6   7
BRANCH   1  18
ATOM     18  C8  UNL     1       1.657   2.177  19.761  0.00  0.00    +0.000 C 
ATOM     19  O1  UNL     1       0.734   2.784  20.305  0.00  0.00    +0.000 OA
BRANCH  18  20
ATOM     20  C7  UNL     1       2.241   2.626  18.429  0.00  0.00    +0.000 C 
BRANCH  20  21
ATOM     21  C4  UNL     1       1.835   1.734  17.240  0.00  0.00    +0.000 C 
BRANCH  21  22
ATOM     22  C5  UNL     1       0.296   1.610  17.209  0.00  0.00    +0.000 C 
ATOM     23  C6  UNL     1      -0.374   2.485  16.158  0.00  0.00    +0.000 C 
ENDBRANCH  21  22
BRANCH  21  24
ATOM     24  C3  UNL     1       2.566   0.370  17.240  0.00  0.00    +0.000 C 
BRANCH  24  26
ATOM     25  C1  UNL     1       2.661  -1.979  16.336  0.00  0.00    +0.000 C 
ATOM     26  C2  UNL     1       1.756  -0.808  16.692  0.00  0.00    +0.000 C 
ENDBRANCH  24  26
ENDBRANCH  21  24
ENDBRANCH  20  21
ENDBRANCH  18  20
ENDBRANCH   1  18
TORSDOF 9
ENDMDL
MODEL 3
REMARK VINA RESULT:    -6.791     12.912     15.758
REMARK INTER + INTRA:         -11.499
REMARK INTER:                  -9.923
REMARK INTRA:                  -1.576
REMARK UNBOUND:                -1.334
REMARK  Name = laboratorio_evolutivo\Gen5_Mutante_3.pdb
REMARK  13 active torsions:
REMARK  status: ('A' for Active; 'I' for Inactive)
REMARK    1  A    between atoms: C1_1  and  C2_2
REMARK    2  A    between atoms: C2_2  and  C3_3
REMARK    3  A    between atoms: C3_3  and  C4_4
REMARK    4  A    between atoms: C4_4  and  C5_5
REMARK    5  A    between atoms: C4_4  and  C7_7
REMARK    6  A    between atoms: C5_5  and  C6_6
REMARK    7  A    between atoms: C7_7  and  C8_8
REMARK    8  A    between atoms: C8_8  and  C9_10
REMARK    9  A    between atoms: C10_11  and  C11_12
REMARK   10  A    between atoms: C14_15  and  C15_16
REMARK   11  A    between atoms: C17_19  and  C18_20
REMARK   12  A    between atoms: C20_22  and  C21_23
REMARK   13  A    between atoms: N2_24  and  O2_25
REMARK                            x       y       z     vdW  Elec       q    Type
REMARK                         _______ _______ _______ _____ _____    ______ ____
ROOT
ATOM      1  C9  UNL     1      18.518  -7.193  -0.075  0.00  0.00    +0.000 C 
ATOM      2  C10 UNL     1      18.721  -5.728  -0.510  0.00  0.00    +0.000 C 
ATOM      3  C11 UNL     1      18.390  -5.397  -1.957  0.00  0.00    +0.000 C 
ATOM      4  C12 UNL     1      17.908  -4.924   0.501  0.00  0.00    +0.000 C 
ATOM      5  C13 UNL     1      18.213  -5.631   1.814  0.00  0.00    +0.000 C 
ATOM      6  C14 UNL     1      18.258  -7.130   1.455  0.00  0.00    +0.000 C 
ENDROOT
BRANCH   6   7
ATOM      7  C15 UNL     1      19.278  -7.910   2.255  0.00  0.00    +0.000 C 
ATOM      8  C16 UNL     1      20.500  -7.340   2.605  0.00  0.00    +0.000 C 
ATOM      9  N1  UNL     1      21.490  -7.974   3.275  0.00  0.00    +0.000 NA
ATOM     10  C17 UNL     1      21.280  -9.257   3.640  0.00  0.00    +0.000 C 
ATOM     11  C18 UNL     1      22.378  -9.956   4.380  0.00  0.00    +0.000 C 
ATOM     12  C19 UNL     1      20.099  -9.924   3.351  0.00  0.00    +0.000 C 
ATOM     13  C20 UNL     1      19.103  -9.246   2.643  0.00  0.00    +0.000 C 
BRANCH  13  14
ATOM     14  C21 UNL     1      17.837  -9.957   2.380  0.00  0.00    +0.000 C 
ATOM     15  N2  UNL     1      16.795 -10.038   3.155  0.00  0.00    +0.000 NA
BRANCH  15  16
ATOM     16  O2  UNL     1      16.996  -9.415   4.389  0.00  0.00    +0.000 OA
ATOM     17  H   UNL     1      17.722  -8.834   4.508  0.00  0.00    +0.000 HD
ENDBRANCH  15  16
ENDBRANCH  13  14
ENDBRANCH   6   7
BRANCH   1  18
ATOM     18  C8  UNL     1      17.339  -7.889  -0.755  0.00  0.00    +0.000 C 
ATOM     19  O1  UNL     1      16.176  -7.591  -0.485  0.00  0.00    +0.000 OA
BRANCH  18  20
ATOM     20  C7  UNL     1      17.678  -9.024  -1.710  0.00  0.00    +0.000 C 
BRANCH  20  21
ATOM     21  C4  UNL     1      16.942  -8.941  -3.062  0.00  0.00    +0.000 C 
BRANCH  21  22
ATOM     22  C5  UNL     1      16.226 -10.283  -3.326  0.00  0.00    +0.000 C 
ATOM     23  C6  UNL     1      14.968 -10.487  -2.492  0.00  0.00    +0.000 C 
ENDBRANCH  21  22
BRANCH  21  24
ATOM     24  C3  UNL     1      17.868  -8.495  -4.219  0.00  0.00    +0.000 C 
BRANCH  24  26
ATOM     25  C1  UNL     1      19.491 -10.134  -5.232  0.00  0.00    +0.000 C 
ATOM     26  C2  UNL     1      18.094  -9.538  -5.317  0.00  0.00    +0.000 C 
ENDBRANCH  24  26
ENDBRANCH  21  24
ENDBRANCH  20  21
ENDBRANCH  18  20
ENDBRANCH   1  18
TORSDOF 9
ENDMDL
MODEL 4
REMARK VINA RESULT:    -6.687     11.449     13.523
REMARK INTER + INTRA:         -11.343
REMARK INTER:                  -8.870
REMARK INTRA:                  -2.474
REMARK UNBOUND:                -1.334
REMARK  Name = laboratorio_evolutivo\Gen5_Mutante_3.pdb
REMARK  13 active torsions:
REMARK  status: ('A' for Active; 'I' for Inactive)
REMARK    1  A    between atoms: C1_1  and  C2_2
REMARK    2  A    between atoms: C2_2  and  C3_3
REMARK    3  A    between atoms: C3_3  and  C4_4
REMARK    4  A    between atoms: C4_4  and  C5_5
REMARK    5  A    between atoms: C4_4  and  C7_7
REMARK    6  A    between atoms: C5_5  and  C6_6
REMARK    7  A    between atoms: C7_7  and  C8_8
REMARK    8  A    between atoms: C8_8  and  C9_10
REMARK    9  A    between atoms: C10_11  and  C11_12
REMARK   10  A    between atoms: C14_15  and  C15_16
REMARK   11  A    between atoms: C17_19  and  C18_20
REMARK   12  A    between atoms: C20_22  and  C21_23
REMARK   13  A    between atoms: N2_24  and  O2_25
REMARK                            x       y       z     vdW  Elec       q    Type
REMARK                         _______ _______ _______ _____ _____    ______ ____
ROOT
ATOM      1  C9  UNL     1      18.089  -9.515   1.746  0.00  0.00    +0.000 C 
ATOM      2  C10 UNL     1      18.143 -10.906   1.084  0.00  0.00    +0.000 C 
ATOM      3  C11 UNL     1      18.786 -12.020   1.895  0.00  0.00    +0.000 C 
ATOM      4  C12 UNL     1      16.694 -11.190   0.698  0.00  0.00    +0.000 C 
ATOM      5  C13 UNL     1      16.218  -9.845   0.167  0.00  0.00    +0.000 C 
ATOM      6  C14 UNL     1      16.874  -8.801   1.093  0.00  0.00    +0.000 C 
ENDROOT
BRANCH   6   7
ATOM      7  C15 UNL     1      17.260  -7.523   0.380  0.00  0.00    +0.000 C 
ATOM      8  C16 UNL     1      18.017  -7.557  -0.788  0.00  0.00    +0.000 C 
ATOM      9  N1  UNL     1      18.449  -6.469  -1.467  0.00  0.00    +0.000 NA
ATOM     10  C17 UNL     1      18.118  -5.253  -0.980  0.00  0.00    +0.000 C 
ATOM     11  C18 UNL     1      18.598  -4.051  -1.733  0.00  0.00    +0.000 C 
ATOM     12  C19 UNL     1      17.362  -5.099   0.171  0.00  0.00    +0.000 C 
ATOM     13  C20 UNL     1      16.945  -6.243   0.858  0.00  0.00    +0.000 C 
BRANCH  13  14
ATOM     14  C21 UNL     1      16.107  -6.061   2.059  0.00  0.00    +0.000 C 
ATOM     15  N2  UNL     1      14.808  -6.036   2.124  0.00  0.00    +0.000 NA
BRANCH  15  16
ATOM     16  O2  UNL     1      14.207  -6.127   0.867  0.00  0.00    +0.000 OA
ATOM     17  H   UNL     1      14.697  -5.918   0.097  0.00  0.00    +0.000 HD
ENDBRANCH  15  16
ENDBRANCH  13  14
ENDBRANCH   6   7
BRANCH   1  18
ATOM     18  C8  UNL     1      17.893  -9.552   3.262  0.00  0.00    +0.000 C 
ATOM     19  O1  UNL     1      16.836  -9.938   3.762  0.00  0.00    +0.000 OA
BRANCH  18  20
ATOM     20  C7  UNL     1      19.032  -9.005   4.109  0.00  0.00    +0.000 C 
BRANCH  20  21
ATOM     21  C4  UNL     1      20.244  -8.523   3.286  0.00  0.00    +0.000 C 
BRANCH  21  22
ATOM     22  C5  UNL     1      21.497  -9.302   3.739  0.00  0.00    +0.000 C 
ATOM     23  C6  UNL     1      21.190 -10.638   4.404  0.00  0.00    +0.000 C 
ENDBRANCH  21  22
BRANCH  21  24
ATOM     24  C3  UNL     1      20.421  -6.987   3.329  0.00  0.00    +0.000 C 
BRANCH  24  26
ATOM     25  C1  UNL     1      20.264  -4.774   2.136  0.00  0.00    +0.000 C 
ATOM     26  C2  UNL     1      20.375  -6.283   1.971  0.00  0.00    +0.000 C 
ENDBRANCH  24  26
ENDBRANCH  21  24
ENDBRANCH  20  21
ENDBRANCH  18  20
ENDBRANCH   1  18
TORSDOF 9
ENDMDL
MODEL 5
REMARK VINA RESULT:    -6.636     12.196     14.166
REMARK INTER + INTRA:         -11.267
REMARK INTER:                  -9.880
REMARK INTRA:                  -1.387
REMARK UNBOUND:                -1.334
REMARK  Name = laboratorio_evolutivo\Gen5_Mutante_3.pdb
REMARK  13 active torsions:
REMARK  status: ('A' for Active; 'I' for Inactive)
REMARK    1  A    between atoms: C1_1  and  C2_2
REMARK    2  A    between atoms: C2_2  and  C3_3
REMARK    3  A    between atoms: C3_3  and  C4_4
REMARK    4  A    between atoms: C4_4  and  C5_5
REMARK    5  A    between atoms: C4_4  and  C7_7
REMARK    6  A    between atoms: C5_5  and  C6_6
REMARK    7  A    between atoms: C7_7  and  C8_8
REMARK    8  A    between atoms: C8_8  and  C9_10
REMARK    9  A    between atoms: C10_11  and  C11_12
REMARK   10  A    between atoms: C14_15  and  C15_16
REMARK   11  A    between atoms: C17_19  and  C18_20
REMARK   12  A    between atoms: C20_22  and  C21_23
REMARK   13  A    between atoms: N2_24  and  O2_25
REMARK                            x       y       z     vdW  Elec       q    Type
REMARK                         _______ _______ _______ _____ _____    ______ ____
ROOT
ATOM      1  C9  UNL     1      16.946  -9.042   0.964  0.00  0.00    +0.000 C 
ATOM      2  C10 UNL     1      15.770  -9.848   1.551  0.00  0.00    +0.000 C 
ATOM      3  C11 UNL     1      15.892 -10.264   3.008  0.00  0.00    +0.000 C 
ATOM      4  C12 UNL     1      14.546  -8.983   1.263  0.00  0.00    +0.000 C 
ATOM      5  C13 UNL     1      14.813  -8.483  -0.150  0.00  0.00    +0.000 C 
ATOM      6  C14 UNL     1      16.330  -8.206  -0.191  0.00  0.00    +0.000 C 
ENDROOT
BRANCH   6   7
ATOM      7  C15 UNL     1      16.960  -8.509  -1.533  0.00  0.00    +0.000 C 
ATOM      8  C16 UNL     1      17.249  -9.818  -1.909  0.00  0.00    +0.000 C 
ATOM      9  N1  UNL     1      17.853 -10.180  -3.064  0.00  0.00    +0.000 NA
ATOM     10  C17 UNL     1      18.201  -9.200  -3.925  0.00  0.00    +0.000 C 
ATOM     11  C18 UNL     1      18.872  -9.604  -5.202  0.00  0.00    +0.000 C 
ATOM     12  C19 UNL     1      17.957  -7.862  -3.659  0.00  0.00    +0.000 C 
ATOM     13  C20 UNL     1      17.345  -7.520  -2.449  0.00  0.00    +0.000 C 
BRANCH  13  14
ATOM     14  C21 UNL     1      17.055  -6.094  -2.201  0.00  0.00    +0.000 C 
ATOM     15  N2  UNL     1      17.864  -5.188  -1.735  0.00  0.00    +0.000 NA
BRANCH  15  16
ATOM     16  O2  UNL     1      19.110  -5.713  -1.385  0.00  0.00    +0.000 OA
ATOM     17  H   UNL     1      19.820  -5.137  -1.179  0.00  0.00    +0.000 HD
ENDBRANCH  15  16
ENDBRANCH  13  14
ENDBRANCH   6   7
BRANCH   1  18
ATOM     18  C8  UNL     1      17.615  -8.097   1.963  0.00  0.00    +0.000 C 
ATOM     19  O1  UNL     1      17.039  -7.090   2.378  0.00  0.00    +0.000 OA
BRANCH  18  20
ATOM     20  C7  UNL     1      19.053  -8.417   2.344  0.00  0.00    +0.000 C 
BRANCH  20  21
ATOM     21  C4  UNL     1      19.798  -7.240   3.004  0.00  0.00    +0.000 C 
BRANCH  21  22
ATOM     22  C5  UNL     1      20.348  -6.312   1.898  0.00  0.00    +0.000 C 
ATOM     23  C6  UNL     1      20.031  -4.838   2.113  0.00  0.00    +0.000 C 
ENDBRANCH  21  22
BRANCH  21  24
ATOM     24  C3  UNL     1      20.875  -7.706   4.013  0.00  0.00    +0.000 C 
BRANCH  24  26
ATOM     25  C1  UNL     1      21.959  -9.963   4.289  0.00  0.00    +0.000 C 
ATOM     26  C2  UNL     1      21.911  -8.688   3.459  0.00  0.00    +0.000 C 
ENDBRANCH  24  26
ENDBRANCH  21  24
ENDBRANCH  20  21
ENDBRANCH  18  20
ENDBRANCH   1  18
TORSDOF 9
ENDMDL
MODEL 6
REMARK VINA RESULT:    -6.543     10.158     12.442
REMARK INTER + INTRA:         -11.128
REMARK INTER:                  -9.495
REMARK INTRA:                  -1.634
REMARK UNBOUND:                -1.334
REMARK  Name = laboratorio_evolutivo\Gen5_Mutante_3.pdb
REMARK  13 active torsions:
REMARK  status: ('A' for Active; 'I' for Inactive)
REMARK    1  A    between atoms: C1_1  and  C2_2
REMARK    2  A    between atoms: C2_2  and  C3_3
REMARK    3  A    between atoms: C3_3  and  C4_4
REMARK    4  A    between atoms: C4_4  and  C5_5
REMARK    5  A    between atoms: C4_4  and  C7_7
REMARK    6  A    between atoms: C5_5  and  C6_6
REMARK    7  A    between atoms: C7_7  and  C8_8
REMARK    8  A    between atoms: C8_8  and  C9_10
REMARK    9  A    between atoms: C10_11  and  C11_12
REMARK   10  A    between atoms: C14_15  and  C15_16
REMARK   11  A    between atoms: C17_19  and  C18_20
REMARK   12  A    between atoms: C20_22  and  C21_23
REMARK   13  A    between atoms: N2_24  and  O2_25
REMARK                            x       y       z     vdW  Elec       q    Type
REMARK                         _______ _______ _______ _____ _____    ______ ____
ROOT
ATOM      1  C9  UNL     1       1.906  -1.262  19.983  0.00  0.00    +0.000 C 
ATOM      2  C10 UNL     1       1.916  -2.255  21.162  0.00  0.00    +0.000 C 
ATOM      3  C11 UNL     1       2.307  -1.694  22.520  0.00  0.00    +0.000 C 
ATOM      4  C12 UNL     1       0.522  -2.876  21.137  0.00  0.00    +0.000 C 
ATOM      5  C13 UNL     1       0.276  -3.089  19.650  0.00  0.00    +0.000 C 
ATOM      6  C14 UNL     1       0.888  -1.848  18.967  0.00  0.00    +0.000 C 
ENDROOT
BRANCH   6   7
ATOM      7  C15 UNL     1       1.509  -2.147  17.621  0.00  0.00    +0.000 C 
ATOM      8  C16 UNL     1       2.110  -3.378  17.368  0.00  0.00    +0.000 C 
ATOM      9  N1  UNL     1       2.731  -3.718  16.215  0.00  0.00    +0.000 NA
ATOM     10  C17 UNL     1       2.771  -2.798  15.228  0.00  0.00    +0.000 C 
ATOM     11  C18 UNL     1       3.461  -3.177  13.954  0.00  0.00    +0.000 C 
ATOM     12  C19 UNL     1       2.201  -1.542  15.365  0.00  0.00    +0.000 C 
ATOM     13  C20 UNL     1       1.580  -1.216  16.575  0.00  0.00    +0.000 C 
BRANCH  13  14
ATOM     14  C21 UNL     1       0.943   0.110  16.689  0.00  0.00    +0.000 C 
ATOM     15  N2  UNL     1       1.522   1.254  16.906  0.00  0.00    +0.000 NA
BRANCH  15  16
ATOM     16  O2  UNL     1       2.898   1.126  17.117  0.00  0.00    +0.000 OA
ATOM     17  H   UNL     1       3.320   1.636  17.779  0.00  0.00    +0.000 HD
ENDBRANCH  15  16
ENDBRANCH  13  14
ENDBRANCH   6   7
BRANCH   1  18
ATOM     18  C8  UNL     1       1.476   0.154  20.364  0.00  0.00    +0.000 C 
ATOM     19  O1  UNL     1       0.290   0.442  20.528  0.00  0.00    +0.000 OA
BRANCH  18  20
ATOM     20  C7  UNL     1       2.577   1.203  20.439  0.00  0.00    +0.000 C 
BRANCH  20  21
ATOM     21  C4  UNL     1       2.399   2.209  21.593  0.00  0.00    +0.000 C 
BRANCH  21  22
ATOM     22  C5  UNL     1       2.332   3.636  21.007  0.00  0.00    +0.000 C 
ATOM     23  C6  UNL     1       1.970   3.681  19.528  0.00  0.00    +0.000 C 
ENDBRANCH  21  22
BRANCH  21  24
ATOM     24  C3  UNL     1       3.469   2.044  22.698  0.00  0.00    +0.000 C 
BRANCH  24  26
ATOM     25  C1  UNL     1       2.838   3.018  24.934  0.00  0.00    +0.000 C 
ATOM     26  C2  UNL     1       3.621   3.236  23.647  0.00  0.00    +0.000 C 
ENDBRANCH  24  26
ENDBRANCH  21  24
ENDBRANCH  20  21
ENDBRANCH  18  20
ENDBRANCH   1  18
TORSDOF 9
ENDMDL
MODEL 7
REMARK VINA RESULT:    -6.512      9.944     12.420
REMARK INTER + INTRA:         -11.081
REMARK INTER:                  -8.716
REMARK INTRA:                  -2.365
REMARK UNBOUND:                -1.334
REMARK  Name = laboratorio_evolutivo\Gen5_Mutante_3.pdb
REMARK  13 active torsions:
REMARK  status: ('A' for Active; 'I' for Inactive)
REMARK    1  A    between atoms: C1_1  and  C2_2
REMARK    2  A    between atoms: C2_2  and  C3_3
REMARK    3  A    between atoms: C3_3  and  C4_4
REMARK    4  A    between atoms: C4_4  and  C5_5
REMARK    5  A    between atoms: C4_4  and  C7_7
REMARK    6  A    between atoms: C5_5  and  C6_6
REMARK    7  A    between atoms: C7_7  and  C8_8
REMARK    8  A    between atoms: C8_8  and  C9_10
REMARK    9  A    between atoms: C10_11  and  C11_12
REMARK   10  A    between atoms: C14_15  and  C15_16
REMARK   11  A    between atoms: C17_19  and  C18_20
REMARK   12  A    between atoms: C20_22  and  C21_23
REMARK   13  A    between atoms: N2_24  and  O2_25
REMARK                            x       y       z     vdW  Elec       q    Type
REMARK                         _______ _______ _______ _____ _____    ______ ____
ROOT
ATOM      1  C9  UNL     1       1.251  -0.948  19.995  0.00  0.00    +0.000 C 
ATOM      2  C10 UNL     1       1.814  -1.668  21.236  0.00  0.00    +0.000 C 
ATOM      3  C11 UNL     1       1.986  -0.827  22.490  0.00  0.00    +0.000 C 
ATOM      4  C12 UNL     1       0.883  -2.863  21.426  0.00  0.00    +0.000 C 
ATOM      5  C13 UNL     1       0.663  -3.347  20.000  0.00  0.00    +0.000 C 
ATOM      6  C14 UNL     1       0.563  -2.059  19.157  0.00  0.00    +0.000 C 
ENDROOT
BRANCH   6   7
ATOM      7  C15 UNL     1       1.155  -2.200  17.772  0.00  0.00    +0.000 C 
ATOM      8  C16 UNL     1       2.419  -2.754  17.587  0.00  0.00    +0.000 C 
ATOM      9  N1  UNL     1       3.048  -2.876  16.396  0.00  0.00    +0.000 NA
ATOM     10  C17 UNL     1       2.403  -2.432  15.296  0.00  0.00    +0.000 C 
ATOM     11  C18 UNL     1       3.103  -2.567  13.979  0.00  0.00    +0.000 C 
ATOM     12  C19 UNL     1       1.138  -1.868  15.359  0.00  0.00    +0.000 C 
ATOM     13  C20 UNL     1       0.522  -1.741  16.608  0.00  0.00    +0.000 C 
BRANCH  13  14
ATOM     14  C21 UNL     1      -0.841  -1.177  16.651  0.00  0.00    +0.000 C 
ATOM     15  N2  UNL     1      -1.968  -1.824  16.694  0.00  0.00    +0.000 NA
BRANCH  15  16
ATOM     16  O2  UNL     1      -1.794  -3.208  16.615  0.00  0.00    +0.000 OA
ATOM     17  H   UNL     1      -1.186  -3.637  17.184  0.00  0.00    +0.000 HD
ENDBRANCH  15  16
ENDBRANCH  13  14
ENDBRANCH   6   7
BRANCH   1  18
ATOM     18  C8  UNL     1       0.228   0.142  20.317  0.00  0.00    +0.000 C 
ATOM     19  O1  UNL     1      -0.906  -0.137  20.708  0.00  0.00    +0.000 OA
BRANCH  18  20
ATOM     20  C7  UNL     1       0.654   1.577  20.043  0.00  0.00    +0.000 C 
BRANCH  20  21
ATOM     21  C4  UNL     1       2.168   1.742  19.805  0.00  0.00    +0.000 C 
BRANCH  21  22
ATOM     22  C5  UNL     1       2.769   2.574  20.959  0.00  0.00    +0.000 C 
ATOM     23  C6  UNL     1       4.043   1.983  21.549  0.00  0.00    +0.000 C 
ENDBRANCH  21  22
BRANCH  21  24
ATOM     24  C3  UNL     1       2.493   2.306  18.401  0.00  0.00    +0.000 C 
BRANCH  24  26
ATOM     25  C1  UNL     1       0.889   2.378  16.460  0.00  0.00    +0.000 C 
ATOM     26  C2  UNL     1       1.892   1.528  17.227  0.00  0.00    +0.000 C 
ENDBRANCH  24  26
ENDBRANCH  21  24
ENDBRANCH  20  21
ENDBRANCH  18  20
ENDBRANCH   1  18
TORSDOF 9
ENDMDL
MODEL 8
REMARK VINA RESULT:    -6.450     12.361     15.001
REMARK INTER + INTRA:         -10.988
REMARK INTER:                  -9.233
REMARK INTRA:                  -1.755
REMARK UNBOUND:                -1.334
REMARK  Name = laboratorio_evolutivo\Gen5_Mutante_3.pdb
REMARK  13 active torsions:
REMARK  status: ('A' for Active; 'I' for Inactive)
REMARK    1  A    between atoms: C1_1  and  C2_2
REMARK    2  A    between atoms: C2_2  and  C3_3
REMARK    3  A    between atoms: C3_3  and  C4_4
REMARK    4  A    between atoms: C4_4  and  C5_5
REMARK    5  A    between atoms: C4_4  and  C7_7
REMARK    6  A    between atoms: C5_5  and  C6_6
REMARK    7  A    between atoms: C7_7  and  C8_8
REMARK    8  A    between atoms: C8_8  and  C9_10
REMARK    9  A    between atoms: C10_11  and  C11_12
REMARK   10  A    between atoms: C14_15  and  C15_16
REMARK   11  A    between atoms: C17_19  and  C18_20
REMARK   12  A    between atoms: C20_22  and  C21_23
REMARK   13  A    between atoms: N2_24  and  O2_25
REMARK                            x       y       z     vdW  Elec       q    Type
REMARK                         _______ _______ _______ _____ _____    ______ ____
ROOT
ATOM      1  C9  UNL     1       2.295   0.738  20.242  0.00  0.00    +0.000 C 
ATOM      2  C10 UNL     1       3.228   0.966  21.448  0.00  0.00    +0.000 C 
ATOM      3  C11 UNL     1       4.203   2.127  21.342  0.00  0.00    +0.000 C 
ATOM      4  C12 UNL     1       2.278   1.073  22.638  0.00  0.00    +0.000 C 
ATOM      5  C13 UNL     1       1.258  -0.020  22.352  0.00  0.00    +0.000 C 
ATOM      6  C14 UNL     1       1.042   0.030  20.826  0.00  0.00    +0.000 C 
ENDROOT
BRANCH   6   7
ATOM      7  C15 UNL     1       0.795  -1.329  20.208  0.00  0.00    +0.000 C 
ATOM      8  C16 UNL     1       1.839  -2.235  20.035  0.00  0.00    +0.000 C 
ATOM      9  N1  UNL     1       1.724  -3.450  19.451  0.00  0.00    +0.000 NA
ATOM     10  C17 UNL     1       0.504  -3.820  19.004  0.00  0.00    +0.000 C 
ATOM     11  C18 UNL     1       0.382  -5.165  18.356  0.00  0.00    +0.000 C 
ATOM     12  C19 UNL     1      -0.607  -3.001  19.128  0.00  0.00    +0.000 C 
ATOM     13  C20 UNL     1      -0.452  -1.745  19.722  0.00  0.00    +0.000 C 
BRANCH  13  14
ATOM     14  C21 UNL     1      -1.654  -0.904  19.884  0.00  0.00    +0.000 C 
ATOM     15  N2  UNL     1      -2.499  -0.908  20.873  0.00  0.00    +0.000 NA
BRANCH  15  16
ATOM     16  O2  UNL     1      -2.212  -1.895  21.818  0.00  0.00    +0.000 OA
ATOM     17  H   UNL     1      -2.658  -2.718  21.787  0.00  0.00    +0.000 HD
ENDBRANCH  15  16
ENDBRANCH  13  14
ENDBRANCH   6   7
BRANCH   1  18
ATOM     18  C8  UNL     1       1.861   2.023  19.537  0.00  0.00    +0.000 C 
ATOM     19  O1  UNL     1       2.496   2.478  18.584  0.00  0.00    +0.000 OA
BRANCH  18  20
ATOM     20  C7  UNL     1       0.664   2.753  20.128  0.00  0.00    +0.000 C 
BRANCH  20  21
ATOM     21  C4  UNL     1       0.777   4.289  20.063  0.00  0.00    +0.000 C 
BRANCH  21  22
ATOM     22  C5  UNL     1       1.652   4.778  21.237  0.00  0.00    +0.000 C 
ATOM     23  C6  UNL     1       2.838   5.633  20.812  0.00  0.00    +0.000 C 
ENDBRANCH  21  22
BRANCH  21  24
ATOM     24  C3  UNL     1      -0.602   4.986  19.986  0.00  0.00    +0.000 C 
BRANCH  24  26
ATOM     25  C1  UNL     1      -2.237   5.458  21.844  0.00  0.00    +0.000 C 
ATOM     26  C2  UNL     1      -0.944   5.895  21.169  0.00  0.00    +0.000 C 
ENDBRANCH  24  26
ENDBRANCH  21  24
ENDBRANCH  20  21
ENDBRANCH  18  20
ENDBRANCH   1  18
TORSDOF 9
ENDMDL
MODEL 9
REMARK VINA RESULT:    -6.395     10.534     13.301
REMARK INTER + INTRA:         -10.906
REMARK INTER:                  -8.528
REMARK INTRA:                  -2.379
REMARK UNBOUND:                -1.334
REMARK  Name = laboratorio_evolutivo\Gen5_Mutante_3.pdb
REMARK  13 active torsions:
REMARK  status: ('A' for Active; 'I' for Inactive)
REMARK    1  A    between atoms: C1_1  and  C2_2
REMARK    2  A    between atoms: C2_2  and  C3_3
REMARK    3  A    between atoms: C3_3  and  C4_4
REMARK    4  A    between atoms: C4_4  and  C5_5
REMARK    5  A    between atoms: C4_4  and  C7_7
REMARK    6  A    between atoms: C5_5  and  C6_6
REMARK    7  A    between atoms: C7_7  and  C8_8
REMARK    8  A    between atoms: C8_8  and  C9_10
REMARK    9  A    between atoms: C10_11  and  C11_12
REMARK   10  A    between atoms: C14_15  and  C15_16
REMARK   11  A    between atoms: C17_19  and  C18_20
REMARK   12  A    between atoms: C20_22  and  C21_23
REMARK   13  A    between atoms: N2_24  and  O2_25
REMARK                            x       y       z     vdW  Elec       q    Type
REMARK                         _______ _______ _______ _____ _____    ______ ____
ROOT
ATOM      1  C9  UNL     1      17.935  -7.066   1.610  0.00  0.00    +0.000 C 
ATOM      2  C10 UNL     1      18.909  -7.420   2.750  0.00  0.00    +0.000 C 
ATOM      3  C11 UNL     1      19.010  -8.890   3.125  0.00  0.00    +0.000 C 
ATOM      4  C12 UNL     1      20.236  -6.811   2.309  0.00  0.00    +0.000 C 
ATOM      5  C13 UNL     1      19.813  -5.466   1.733  0.00  0.00    +0.000 C 
ATOM      6  C14 UNL     1      18.489  -5.752   0.995  0.00  0.00    +0.000 C 
ENDROOT
BRANCH   6   7
ATOM      7  C15 UNL     1      17.501  -4.608   1.068  0.00  0.00    +0.000 C 
ATOM      8  C16 UNL     1      17.137  -4.055   2.293  0.00  0.00    +0.000 C 
ATOM      9  N1  UNL     1      16.229  -3.066   2.461  0.00  0.00    +0.000 NA
ATOM     10  C17 UNL     1      15.629  -2.570   1.357  0.00  0.00    +0.000 C 
ATOM     11  C18 UNL     1      14.624  -1.477   1.546  0.00  0.00    +0.000 C 
ATOM     12  C19 UNL     1      15.918  -3.040   0.085  0.00  0.00    +0.000 C 
ATOM     13  C20 UNL     1      16.849  -4.074  -0.052  0.00  0.00    +0.000 C 
BRANCH  13  14
ATOM     14  C21 UNL     1      17.174  -4.534  -1.416  0.00  0.00    +0.000 C 
ATOM     15  N2  UNL     1      18.238  -4.263  -2.113  0.00  0.00    +0.000 NA
BRANCH  15  16
ATOM     16  O2  UNL     1      19.094  -3.373  -1.460  0.00  0.00    +0.000 OA
ATOM     17  H   UNL     1      18.872  -3.048  -0.610  0.00  0.00    +0.000 HD
ENDBRANCH  15  16
ENDBRANCH  13  14
ENDBRANCH   6   7
BRANCH   1  18
ATOM     18  C8  UNL     1      17.841  -8.130   0.515  0.00  0.00    +0.000 C 
ATOM     19  O1  UNL     1      18.657  -8.175  -0.406  0.00  0.00    +0.000 OA
BRANCH  18  20
ATOM     20  C7  UNL     1      16.643  -9.066   0.577  0.00  0.00    +0.000 C 
BRANCH  20  21
ATOM     21  C4  UNL     1      15.596  -8.668   1.636  0.00  0.00    +0.000 C 
BRANCH  21  22
ATOM     22  C5  UNL     1      15.109  -9.940   2.362  0.00  0.00    +0.000 C 
ATOM     23  C6  UNL     1      13.890 -10.590   1.722  0.00  0.00    +0.000 C 
ENDBRANCH  21  22
BRANCH  21  24
ATOM     24  C3  UNL     1      14.448  -7.813   1.048  0.00  0.00    +0.000 C 
BRANCH  24  26
ATOM     25  C1  UNL     1      14.607  -6.472   3.174  0.00  0.00    +0.000 C 
ATOM     26  C2  UNL     1      14.255  -6.439   1.694  0.00  0.00    +0.000 C 
ENDBRANCH  24  26
ENDBRANCH  21  24
ENDBRANCH  20  21
ENDBRANCH  18  20
ENDBRANCH   1  18
TORSDOF 9
ENDMDL
