MODEL 1
REMARK VINA RESULT:    -8.151      0.000      0.000
REMARK INTER + INTRA:         -11.815
REMARK INTER:                 -11.724
REMARK INTRA:                  -0.090
REMARK UNBOUND:                -0.090
REMARK  Name = laboratorio_evolutivo\Gen5_Mutante_6.pdb
REMARK  13 active torsions:
REMARK  status: ('A' for Active; 'I' for Inactive)
REMARK    1  A    between atoms: C1_1  and  C2_2
REMARK    2  A    between atoms: C2_2  and  C3_3
REMARK    3  A    between atoms: C3_3  and  C4_4
REMARK    4  A    between atoms: C3_3  and  C19_23
REMARK    5  A    between atoms: C4_4  and  C5_5
REMARK    6  A    between atoms: C5_5  and  C6_7
REMARK    7  A    between atoms: C7_8  and  C8_9
REMARK    8  A    between atoms: C11_12  and  C12_13
REMARK    9  A    between atoms: C14_16  and  C15_17
REMARK   10  A    between atoms: C17_19  and  C18_20
REMARK   11  A    between atoms: N2_21  and  O2_22
REMARK   12  A    between atoms: C19_23  and  C20_24
REMARK   13  A    between atoms: C19_23  and  C21_25
REMARK                            x       y       z     vdW  Elec       q    Type
REMARK                         _______ _______ _______ _____ _____    ______ ____
ROOT
ATOM      1  C6  UNL     1       2.203  60.455  70.193  0.00  0.00    +0.000 C 
ATOM      2  C7  UNL     1       3.575  59.838  69.858  0.00  0.00    +0.000 C 
ATOM      3  C8  UNL     1       4.531  60.690  69.041  0.00  0.00    +0.000 C 
ATOM      4  C9  UNL     1       4.149  59.425  71.212  0.00  0.00    +0.000 C 
ATOM      5  C10 UNL     1       2.938  59.223  72.129  0.00  0.00    +0.000 C 
ATOM      6  C11 UNL     1       1.677  59.441  71.259  0.00  0.00    +0.000 C 
ENDROOT
BRANCH   6   7
ATOM      7  C12 UNL     1       0.373  59.750  71.973  0.00  0.00    +0.000 C 
ATOM      8  C13 UNL     1      -0.286  60.957  71.755  0.00  0.00    +0.000 C 
ATOM      9  N1  UNL     1      -1.408  61.376  72.388  0.00  0.00    +0.000 NA
ATOM     10  C14 UNL     1      -1.971  60.544  73.284  0.00  0.00    +0.000 C 
ATOM     11  C15 UNL     1      -3.206  61.011  73.991  0.00  0.00    +0.000 C 
ATOM     12  C16 UNL     1      -1.467  59.276  73.514  0.00  0.00    +0.000 C 
ATOM     13  C17 UNL     1      -0.319  58.871  72.821  0.00  0.00    +0.000 C 
BRANCH  13  14
ATOM     14  C18 UNL     1      -0.000  57.443  72.984  0.00  0.00    +0.000 C 
ATOM     15  N2  UNL     1       0.871  57.032  73.851  0.00  0.00    +0.000 NA
BRANCH  15  16
ATOM     16  O2  UNL     1       0.996  55.642  73.739  0.00  0.00    +0.000 OA
ATOM     17  H   UNL     1       0.327  55.144  73.314  0.00  0.00    +0.000 HD
ENDBRANCH  15  16
ENDBRANCH  13  14
ENDBRANCH   6   7
BRANCH   1  18
ATOM     18  C5  UNL     1       2.328  61.906  70.709  0.00  0.00    +0.000 C 
ATOM     19  O1  UNL     1       2.747  62.152  71.840  0.00  0.00    +0.000 OA
BRANCH  18  20
ATOM     20  C4  UNL     1       1.858  63.033  69.787  0.00  0.00    +0.000 C 
BRANCH  20  21
ATOM     21  C3  UNL     1       2.722  64.320  69.764  0.00  0.00    +0.000 C 
BRANCH  21  22
ATOM     22  C19 UNL     1       4.016  64.208  68.898  0.00  0.00    +0.000 C 
ATOM     23  C20 UNL     1       3.721  64.040  67.404  0.00  0.00    +0.000 C 
ATOM     24  C21 UNL     1       4.937  65.425  69.071  0.00  0.00    +0.000 C 
ENDBRANCH  21  22
BRANCH  21  26
ATOM     25  C1  UNL     1       0.373  65.364  69.780  0.00  0.00    +0.000 C 
ATOM     26  C2  UNL     1       1.837  65.534  69.385  0.00  0.00    +0.000 C 
ENDBRANCH  21  26
ENDBRANCH  20  21
ENDBRANCH  18  20
ENDBRANCH   1  18
TORSDOF 8
ENDMDL
MODEL 2
REMARK VINA RESULT:    -8.146      2.780      6.673
REMARK INTER + INTRA:         -11.808
REMARK INTER:                 -11.012
REMARK INTRA:                  -0.796
REMARK UNBOUND:                -0.090
REMARK  Name = laboratorio_evolutivo\Gen5_Mutante_6.pdb
REMARK  13 active torsions:
REMARK  status: ('A' for Active; 'I' for Inactive)
REMARK    1  A    between atoms: C1_1  and  C2_2
REMARK    2  A    between atoms: C2_2  and  C3_3
REMARK    3  A    between atoms: C3_3  and  C4_4
REMARK    4  A    between atoms: C3_3  and  C19_23
REMARK    5  A    between atoms: C4_4  and  C5_5
REMARK    6  A    between atoms: C5_5  and  C6_7
REMARK    7  A    between atoms: C7_8  and  C8_9
REMARK    8  A    between atoms: C11_12  and  C12_13
REMARK    9  A    between atoms: C14_16  and  C15_17
REMARK   10  A    between atoms: C17_19  and  C18_20
REMARK   11  A    between atoms: N2_21  and  O2_22
REMARK   12  A    between atoms: C19_23  and  C20_24
REMARK   13  A    between atoms: C19_23  and  C21_25
REMARK                            x       y       z     vdW  Elec       q    Type
REMARK                         _______ _______ _______ _____ _____    ______ ____
ROOT
ATOM      1  C6  UNL     1       1.141  60.673  71.745  0.00  0.00    +0.000 C 
ATOM      2  C7  UNL     1      -0.310  60.231  72.022  0.00  0.00    +0.000 C 
ATOM      3  C8  UNL     1      -0.543  59.373  73.254  0.00  0.00    +0.000 C 
ATOM      4  C9  UNL     1      -1.108  61.534  72.040  0.00  0.00    +0.000 C 
ATOM      5  C10 UNL     1      -0.300  62.525  71.196  0.00  0.00    +0.000 C 
ATOM      6  C11 UNL     1       0.913  61.747  70.634  0.00  0.00    +0.000 C 
ENDROOT
BRANCH   6   7
ATOM      7  C12 UNL     1       2.105  62.555  70.149  0.00  0.00    +0.000 C 
ATOM      8  C13 UNL     1       2.074  63.947  70.172  0.00  0.00    +0.000 C 
ATOM      9  N1  UNL     1       3.038  64.772  69.697  0.00  0.00    +0.000 NA
ATOM     10  C14 UNL     1       4.151  64.208  69.188  0.00  0.00    +0.000 C 
ATOM     11  C15 UNL     1       5.212  65.120  68.653  0.00  0.00    +0.000 C 
ATOM     12  C16 UNL     1       4.342  62.839  69.202  0.00  0.00    +0.000 C 
ATOM     13  C17 UNL     1       3.332  62.021  69.724  0.00  0.00    +0.000 C 
BRANCH  13  14
ATOM     14  C18 UNL     1       3.730  60.612  69.881  0.00  0.00    +0.000 C 
ATOM     15  N2  UNL     1       3.484  59.728  68.967  0.00  0.00    +0.000 NA
BRANCH  15  16
ATOM     16  O2  UNL     1       3.929  58.479  69.418  0.00  0.00    +0.000 OA
ATOM     17  H   UNL     1       4.841  58.266  69.382  0.00  0.00    +0.000 HD
ENDBRANCH  15  16
ENDBRANCH  13  14
ENDBRANCH   6   7
BRANCH   1  18
ATOM     18  C5  UNL     1       1.837  61.214  73.013  0.00  0.00    +0.000 C 
ATOM     19  O1  UNL     1       1.567  62.325  73.470  0.00  0.00    +0.000 OA
BRANCH  18  20
ATOM     20  C4  UNL     1       2.921  60.346  73.656  0.00  0.00    +0.000 C 
BRANCH  20  21
ATOM     21  C3  UNL     1       2.438  59.197  74.577  0.00  0.00    +0.000 C 
BRANCH  21  22
ATOM     22  C19 UNL     1       3.118  57.820  74.294  0.00  0.00    +0.000 C 
ATOM     23  C20 UNL     1       4.091  57.398  75.398  0.00  0.00    +0.000 C 
ATOM     24  C21 UNL     1       2.091  56.695  74.102  0.00  0.00    +0.000 C 
ENDBRANCH  21  22
BRANCH  21  26
ATOM     25  C1  UNL     1       1.264  60.265  76.599  0.00  0.00    +0.000 C 
ATOM     26  C2  UNL     1       2.546  59.637  76.058  0.00  0.00    +0.000 C 
ENDBRANCH  21  26
ENDBRANCH  20  21
ENDBRANCH  18  20
ENDBRANCH   1  18
TORSDOF 8
ENDMDL
MODEL 3
REMARK VINA RESULT:    -7.851      2.668      6.859
REMARK INTER + INTRA:         -11.384
REMARK INTER:                 -10.237
REMARK INTRA:                  -1.147
REMARK UNBOUND:                -0.090
REMARK  Name = laboratorio_evolutivo\Gen5_Mutante_6.pdb
REMARK  13 active torsions:
REMARK  status: ('A' for Active; 'I' for Inactive)
REMARK    1  A    between atoms: C1_1  and  C2_2
REMARK    2  A    between atoms: C2_2  and  C3_3
REMARK    3  A    between atoms: C3_3  and  C4_4
REMARK    4  A    between atoms: C3_3  and  C19_23
REMARK    5  A    between atoms: C4_4  and  C5_5
REMARK    6  A    between atoms: C5_5  and  C6_7
REMARK    7  A    between atoms: C7_8  and  C8_9
REMARK    8  A    between atoms: C11_12  and  C12_13
REMARK    9  A    between atoms: C14_16  and  C15_17
REMARK   10  A    between atoms: C17_19  and  C18_20
REMARK   11  A    between atoms: N2_21  and  O2_22
REMARK   12  A    between atoms: C19_23  and  C20_24
REMARK   13  A    between atoms: C19_23  and  C21_25
REMARK                            x       y       z     vdW  Elec       q    Type
REMARK                         _______ _______ _______ _____ _____    ______ ____
ROOT
ATOM      1  C6  UNL     1       0.417  59.338  72.568  0.00  0.00    +0.000 C 
ATOM      2  C7  UNL     1      -0.997  59.023  73.092  0.00  0.00    +0.000 C 
ATOM      3  C8  UNL     1      -1.095  58.095  74.291  0.00  0.00    +0.000 C 
ATOM      4  C9  UNL     1      -1.626  60.393  73.343  0.00  0.00    +0.000 C 
ATOM      5  C10 UNL     1      -0.881  61.364  72.421  0.00  0.00    +0.000 C 
ATOM      6  C11 UNL     1       0.112  60.517  71.589  0.00  0.00    +0.000 C 
ENDROOT
BRANCH   6   7
ATOM      7  C12 UNL     1       1.277  61.238  70.934  0.00  0.00    +0.000 C 
ATOM      8  C13 UNL     1       1.462  62.605  71.125  0.00  0.00    +0.000 C 
ATOM      9  N1  UNL     1       2.412  63.370  70.534  0.00  0.00    +0.000 NA
ATOM     10  C14 UNL     1       3.289  62.758  69.716  0.00  0.00    +0.000 C 
ATOM     11  C15 UNL     1       4.334  63.604  69.056  0.00  0.00    +0.000 C 
ATOM     12  C16 UNL     1       3.272  61.388  69.527  0.00  0.00    +0.000 C 
ATOM     13  C17 UNL     1       2.288  60.630  70.174  0.00  0.00    +0.000 C 
BRANCH  13  14
ATOM     14  C18 UNL     1       2.494  59.176  70.069  0.00  0.00    +0.000 C 
ATOM     15  N2  UNL     1       3.655  58.635  70.270  0.00  0.00    +0.000 NA
BRANCH  15  16
ATOM     16  O2  UNL     1       3.552  57.256  70.050  0.00  0.00    +0.000 OA
ATOM     17  H   UNL     1       3.147  56.708  70.693  0.00  0.00    +0.000 HD
ENDBRANCH  15  16
ENDBRANCH  13  14
ENDBRANCH   6   7
BRANCH   1  18
ATOM     18  C5  UNL     1       1.393  59.703  73.710  0.00  0.00    +0.000 C 
ATOM     19  O1  UNL     1       1.227  60.709  74.400  0.00  0.00    +0.000 OA
BRANCH  18  20
ATOM     20  C4  UNL     1       2.612  58.802  73.920  0.00  0.00    +0.000 C 
BRANCH  20  21
ATOM     21  C3  UNL     1       2.536  57.792  75.094  0.00  0.00    +0.000 C 
BRANCH  21  22
ATOM     22  C19 UNL     1       2.351  56.307  74.651  0.00  0.00    +0.000 C 
ATOM     23  C20 UNL     1       1.375  55.535  75.544  0.00  0.00    +0.000 C 
ATOM     24  C21 UNL     1       1.867  56.190  73.198  0.00  0.00    +0.000 C 
ENDBRANCH  21  22
BRANCH  21  26
ATOM     25  C1  UNL     1       4.883  57.009  75.793  0.00  0.00    +0.000 C 
ATOM     26  C2  UNL     1       3.748  58.000  76.037  0.00  0.00    +0.000 C 
ENDBRANCH  21  26
ENDBRANCH  20  21
ENDBRANCH  18  20
ENDBRANCH   1  18
TORSDOF 8
ENDMDL
MODEL 4
REMARK VINA RESULT:    -7.690     19.055     21.075
REMARK INTER + INTRA:         -11.151
REMARK INTER:                  -9.414
REMARK INTRA:                  -1.737
REMARK UNBOUND:                -0.090
REMARK  Name = laboratorio_evolutivo\Gen5_Mutante_6.pdb
REMARK  13 active torsions:
REMARK  status: ('A' for Active; 'I' for Inactive)
REMARK    1  A    between atoms: C1_1  and  C2_2
REMARK    2  A    between atoms: C2_2  and  C3_3
REMARK    3  A    between atoms: C3_3  and  C4_4
REMARK    4  A    between atoms: C3_3  and  C19_23
REMARK    5  A    between atoms: C4_4  and  C5_5
REMARK    6  A    between atoms: C5_5  and  C6_7
REMARK    7  A    between atoms: C7_8  and  C8_9
REMARK    8  A    between atoms: C11_12  and  C12_13
REMARK    9  A    between atoms: C14_16  and  C15_17
REMARK   10  A    between atoms: C17_19  and  C18_20
REMARK   11  A    between atoms: N2_21  and  O2_22
REMARK   12  A    between atoms: C19_23  and  C20_24
REMARK   13  A    between atoms: C19_23  and  C21_25
REMARK                            x       y       z     vdW  Elec       q    Type
REMARK                         _______ _______ _______ _____ _____    ______ ____
ROOT
ATOM      1  C6  UNL     1      14.418  50.696  60.342  0.00  0.00    +0.000 C 
ATOM      2  C7  UNL     1      14.949  52.083  60.755  0.00  0.00    +0.000 C 
ATOM      3  C8  UNL     1      16.239  52.113  61.558  0.00  0.00    +0.000 C 
ATOM      4  C9  UNL     1      15.041  52.862  59.444  0.00  0.00    +0.000 C 
ATOM      5  C10 UNL     1      14.034  52.200  58.498  0.00  0.00    +0.000 C 
ATOM      6  C11 UNL     1      13.314  51.099  59.313  0.00  0.00    +0.000 C 
ENDROOT
BRANCH   6   7
ATOM      7  C12 UNL     1      12.605  50.000  58.541  0.00  0.00    +0.000 C 
ATOM      8  C13 UNL     1      12.962  49.716  57.225  0.00  0.00    +0.000 C 
ATOM      9  N1  UNL     1      12.354  48.818  56.412  0.00  0.00    +0.000 NA
ATOM     10  C14 UNL     1      11.336  48.100  56.922  0.00  0.00    +0.000 C 
ATOM     11  C15 UNL     1      10.657  47.114  56.021  0.00  0.00    +0.000 C 
ATOM     12  C16 UNL     1      10.954  48.219  58.246  0.00  0.00    +0.000 C 
ATOM     13  C17 UNL     1      11.624  49.142  59.061  0.00  0.00    +0.000 C 
BRANCH  13  14
ATOM     14  C18 UNL     1      11.280  49.032  60.488  0.00  0.00    +0.000 C 
ATOM     15  N2  UNL     1      10.597  48.033  60.951  0.00  0.00    +0.000 NA
BRANCH  15  16
ATOM     16  O2  UNL     1      10.385  48.230  62.321  0.00  0.00    +0.000 OA
ATOM     17  H   UNL     1      10.511  47.522  62.921  0.00  0.00    +0.000 HD
ENDBRANCH  15  16
ENDBRANCH  13  14
ENDBRANCH   6   7
BRANCH   1  18
ATOM     18  C5  UNL     1      15.530  49.798  59.756  0.00  0.00    +0.000 C 
ATOM     19  O1  UNL     1      16.320  50.221  58.912  0.00  0.00    +0.000 OA
BRANCH  18  20
ATOM     20  C4  UNL     1      15.584  48.339  60.216  0.00  0.00    +0.000 C 
BRANCH  20  21
ATOM     21  C3  UNL     1      14.853  48.000  61.539  0.00  0.00    +0.000 C 
BRANCH  21  22
ATOM     22  C19 UNL     1      13.980  46.707  61.476  0.00  0.00    +0.000 C 
ATOM     23  C20 UNL     1      13.798  46.178  60.050  0.00  0.00    +0.000 C 
ATOM     24  C21 UNL     1      14.556  45.575  62.339  0.00  0.00    +0.000 C 
ENDBRANCH  21  22
BRANCH  21  26
ATOM     25  C1  UNL     1      15.711  49.175  63.659  0.00  0.00    +0.000 C 
ATOM     26  C2  UNL     1      15.870  47.992  62.708  0.00  0.00    +0.000 C 
ENDBRANCH  21  26
ENDBRANCH  20  21
ENDBRANCH  18  20
ENDBRANCH   1  18
TORSDOF 8
ENDMDL
MODEL 5
REMARK VINA RESULT:    -7.602     19.619     21.430
REMARK INTER + INTRA:         -11.026
REMARK INTER:                  -9.796
REMARK INTRA:                  -1.230
REMARK UNBOUND:                -0.090
REMARK  Name = laboratorio_evolutivo\Gen5_Mutante_6.pdb
REMARK  13 active torsions:
REMARK  status: ('A' for Active; 'I' for Inactive)
REMARK    1  A    between atoms: C1_1  and  C2_2
REMARK    2  A    between atoms: C2_2  and  C3_3
REMARK    3  A    between atoms: C3_3  and  C4_4
REMARK    4  A    between atoms: C3_3  and  C19_23
REMARK    5  A    between atoms: C4_4  and  C5_5
REMARK    6  A    between atoms: C5_5  and  C6_7
REMARK    7  A    between atoms: C7_8  and  C8_9
REMARK    8  A    between atoms: C11_12  and  C12_13
REMARK    9  A    between atoms: C14_16  and  C15_17
REMARK   10  A    between atoms: C17_19  and  C18_20
REMARK   11  A    between atoms: N2_21  and  O2_22
REMARK   12  A    between atoms: C19_23  and  C20_24
REMARK   13  A    between atoms: C19_23  and  C21_25
REMARK                            x       y       z     vdW  Elec       q    Type
REMARK                         _______ _______ _______ _____ _____    ______ ____
ROOT
ATOM      1  C6  UNL     1      14.435  50.743  60.608  0.00  0.00    +0.000 C 
ATOM      2  C7  UNL     1      14.883  52.199  60.839  0.00  0.00    +0.000 C 
ATOM      3  C8  UNL     1      16.270  52.406  61.423  0.00  0.00    +0.000 C 
ATOM      4  C9  UNL     1      14.696  52.877  59.482  0.00  0.00    +0.000 C 
ATOM      5  C10 UNL     1      13.627  52.055  58.754  0.00  0.00    +0.000 C 
ATOM      6  C11 UNL     1      13.152  50.964  59.743  0.00  0.00    +0.000 C 
ENDROOT
BRANCH   6   7
ATOM      7  C12 UNL     1      12.446  49.749  59.167  0.00  0.00    +0.000 C 
ATOM      8  C13 UNL     1      11.428  49.118  59.877  0.00  0.00    +0.000 C 
ATOM      9  N1  UNL     1      10.781  47.987  59.504  0.00  0.00    +0.000 NA
ATOM     10  C14 UNL     1      11.116  47.433  58.324  0.00  0.00    +0.000 C 
ATOM     11  C15 UNL     1      10.408  46.178  57.916  0.00  0.00    +0.000 C 
ATOM     12  C16 UNL     1      12.041  48.023  57.482  0.00  0.00    +0.000 C 
ATOM     13  C17 UNL     1      12.671  49.205  57.893  0.00  0.00    +0.000 C 
BRANCH  13  14
ATOM     14  C18 UNL     1      13.469  49.850  56.837  0.00  0.00    +0.000 C 
ATOM     15  N2  UNL     1      12.984  50.079  55.658  0.00  0.00    +0.000 NA
BRANCH  15  16
ATOM     16  O2  UNL     1      13.986  50.649  54.863  0.00  0.00    +0.000 OA
ATOM     17  H   UNL     1      14.715  50.130  54.585  0.00  0.00    +0.000 HD
ENDBRANCH  15  16
ENDBRANCH  13  14
ENDBRANCH   6   7
BRANCH   1  18
ATOM     18  C5  UNL     1      15.528  49.901  59.911  0.00  0.00    +0.000 C 
ATOM     19  O1  UNL     1      16.224  50.371  59.010  0.00  0.00    +0.000 OA
BRANCH  18  20
ATOM     20  C4  UNL     1      15.681  48.440  60.337  0.00  0.00    +0.000 C 
BRANCH  20  21
ATOM     21  C3  UNL     1      14.876  47.990  61.583  0.00  0.00    +0.000 C 
BRANCH  21  22
ATOM     22  C19 UNL     1      14.067  46.670  61.381  0.00  0.00    +0.000 C 
ATOM     23  C20 UNL     1      14.171  46.117  59.957  0.00  0.00    +0.000 C 
ATOM     24  C21 UNL     1      14.503  45.568  62.358  0.00  0.00    +0.000 C 
ENDBRANCH  21  22
BRANCH  21  26
ATOM     25  C1  UNL     1      15.851  49.266  63.589  0.00  0.00    +0.000 C 
ATOM     26  C2  UNL     1      15.810  47.950  62.819  0.00  0.00    +0.000 C 
ENDBRANCH  21  26
ENDBRANCH  20  21
ENDBRANCH  18  20
ENDBRANCH   1  18
TORSDOF 8
ENDMDL
MODEL 6
REMARK VINA RESULT:    -7.542      0.967      2.024
REMARK INTER + INTRA:         -10.939
REMARK INTER:                 -10.236
REMARK INTRA:                  -0.703
REMARK UNBOUND:                -0.090
REMARK  Name = laboratorio_evolutivo\Gen5_Mutante_6.pdb
REMARK  13 active torsions:
REMARK  status: ('A' for Active; 'I' for Inactive)
REMARK    1  A    between atoms: C1_1  and  C2_2
REMARK    2  A    between atoms: C2_2  and  C3_3
REMARK    3  A    between atoms: C3_3  and  C4_4
REMARK    4  A    between atoms: C3_3  and  C19_23
REMARK    5  A    between atoms: C4_4  and  C5_5
REMARK    6  A    between atoms: C5_5  and  C6_7
REMARK    7  A    between atoms: C7_8  and  C8_9
REMARK    8  A    between atoms: C11_12  and  C12_13
REMARK    9  A    between atoms: C14_16  and  C15_17
REMARK   10  A    between atoms: C17_19  and  C18_20
REMARK   11  A    between atoms: N2_21  and  O2_22
REMARK   12  A    between atoms: C19_23  and  C20_24
REMARK   13  A    between atoms: C19_23  and  C21_25
REMARK                            x       y       z     vdW  Elec       q    Type
REMARK                         _______ _______ _______ _____ _____    ______ ____
ROOT
ATOM      1  C6  UNL     1       2.087  60.383  70.553  0.00  0.00    +0.000 C 
ATOM      2  C7  UNL     1       3.176  59.622  69.771  0.00  0.00    +0.000 C 
ATOM      3  C8  UNL     1       4.316  60.448  69.199  0.00  0.00    +0.000 C 
ATOM      4  C9  UNL     1       3.648  58.535  70.735  0.00  0.00    +0.000 C 
ATOM      5  C10 UNL     1       2.478  58.298  71.696  0.00  0.00    +0.000 C 
ATOM      6  C11 UNL     1       1.315  59.197  71.213  0.00  0.00    +0.000 C 
ENDROOT
BRANCH   6   7
ATOM      7  C12 UNL     1       0.209  59.512  72.205  0.00  0.00    +0.000 C 
ATOM      8  C13 UNL     1      -0.583  60.647  72.046  0.00  0.00    +0.000 C 
ATOM      9  N1  UNL     1      -1.542  61.073  72.903  0.00  0.00    +0.000 NA
ATOM     10  C14 UNL     1      -1.791  60.320  73.991  0.00  0.00    +0.000 C 
ATOM     11  C15 UNL     1      -2.845  60.797  74.943  0.00  0.00    +0.000 C 
ATOM     12  C16 UNL     1      -1.141  59.119  74.207  0.00  0.00    +0.000 C 
ATOM     13  C17 UNL     1      -0.172  58.701  73.285  0.00  0.00    +0.000 C 
BRANCH  13  14
ATOM     14  C18 UNL     1       0.296  57.322  73.501  0.00  0.00    +0.000 C 
ATOM     15  N2  UNL     1      -0.326  56.303  72.997  0.00  0.00    +0.000 NA
BRANCH  15  16
ATOM     16  O2  UNL     1       0.319  55.132  73.413  0.00  0.00    +0.000 OA
ATOM     17  H   UNL     1       0.536  55.012  74.317  0.00  0.00    +0.000 HD
ENDBRANCH  15  16
ENDBRANCH  13  14
ENDBRANCH   6   7
BRANCH   1  18
ATOM     18  C5  UNL     1       2.690  61.385  71.564  0.00  0.00    +0.000 C 
ATOM     19  O1  UNL     1       3.178  61.007  72.629  0.00  0.00    +0.000 OA
BRANCH  18  20
ATOM     20  C4  UNL     1       2.609  62.875  71.225  0.00  0.00    +0.000 C 
BRANCH  20  21
ATOM     21  C3  UNL     1       1.850  63.253  69.928  0.00  0.00    +0.000 C 
BRANCH  21  22
ATOM     22  C19 UNL     1       0.523  64.041  70.168  0.00  0.00    +0.000 C 
ATOM     23  C20 UNL     1       0.122  64.098  71.645  0.00  0.00    +0.000 C 
ATOM     24  C21 UNL     1       0.597  65.478  69.634  0.00  0.00    +0.000 C 
ENDBRANCH  21  22
BRANCH  21  26
ATOM     25  C1  UNL     1       4.236  64.102  69.490  0.00  0.00    +0.000 C 
ATOM     26  C2  UNL     1       2.815  63.969  68.950  0.00  0.00    +0.000 C 
ENDBRANCH  21  26
ENDBRANCH  20  21
ENDBRANCH  18  20
ENDBRANCH   1  18
TORSDOF 8
ENDMDL
MODEL 7
REMARK VINA RESULT:    -7.434      2.402      4.159
REMARK INTER + INTRA:         -10.784
REMARK INTER:                  -9.245
REMARK INTRA:                  -1.538
REMARK UNBOUND:                -0.090
REMARK  Name = laboratorio_evolutivo\Gen5_Mutante_6.pdb
REMARK  13 active torsions:
REMARK  status: ('A' for Active; 'I' for Inactive)
REMARK    1  A    between atoms: C1_1  and  C2_2
REMARK    2  A    between atoms: C2_2  and  C3_3
REMARK    3  A    between atoms: C3_3  and  C4_4
REMARK    4  A    between atoms: C3_3  and  C19_23
REMARK    5  A    between atoms: C4_4  and  C5_5
REMARK    6  A    between atoms: C5_5  and  C6_7
REMARK    7  A    between atoms: C7_8  and  C8_9
REMARK    8  A    between atoms: C11_12  and  C12_13
REMARK    9  A    between atoms: C14_16  and  C15_17
REMARK   10  A    between atoms: C17_19  and  C18_20
REMARK   11  A    between atoms: N2_21  and  O2_22
REMARK   12  A    between atoms: C19_23  and  C20_24
REMARK   13  A    between atoms: C19_23  and  C21_25
REMARK                            x       y       z     vdW  Elec       q    Type
REMARK                         _______ _______ _______ _____ _____    ______ ____
ROOT
ATOM      1  C6  UNL     1       1.970  59.998  71.057  0.00  0.00    +0.000 C 
ATOM      2  C7  UNL     1       2.607  60.001  69.654  0.00  0.00    +0.000 C 
ATOM      3  C8  UNL     1       3.361  61.254  69.245  0.00  0.00    +0.000 C 
ATOM      4  C9  UNL     1       3.475  58.743  69.626  0.00  0.00    +0.000 C 
ATOM      5  C10 UNL     1       2.858  57.793  70.658  0.00  0.00    +0.000 C 
ATOM      6  C11 UNL     1       1.589  58.489  71.204  0.00  0.00    +0.000 C 
ENDROOT
BRANCH   6   7
ATOM      7  C12 UNL     1       1.036  58.006  72.533  0.00  0.00    +0.000 C 
ATOM      8  C13 UNL     1       1.750  57.095  73.308  0.00  0.00    +0.000 C 
ATOM      9  N1  UNL     1       1.327  56.534  74.467  0.00  0.00    +0.000 NA
ATOM     10  C14 UNL     1       0.126  56.910  74.945  0.00  0.00    +0.000 C 
ATOM     11  C15 UNL     1      -0.346  56.282  76.221  0.00  0.00    +0.000 C 
ATOM     12  C16 UNL     1      -0.632  57.882  74.318  0.00  0.00    +0.000 C 
ATOM     13  C17 UNL     1      -0.150  58.456  73.135  0.00  0.00    +0.000 C 
BRANCH  13  14
ATOM     14  C18 UNL     1      -0.931  59.617  72.676  0.00  0.00    +0.000 C 
ATOM     15  N2  UNL     1      -1.927  60.083  73.361  0.00  0.00    +0.000 NA
BRANCH  15  16
ATOM     16  O2  UNL     1      -2.501  61.146  72.653  0.00  0.00    +0.000 OA
ATOM     17  H   UNL     1      -2.785  61.021  71.769  0.00  0.00    +0.000 HD
ENDBRANCH  15  16
ENDBRANCH  13  14
ENDBRANCH   6   7
BRANCH   1  18
ATOM     18  C5  UNL     1       2.945  60.510  72.141  0.00  0.00    +0.000 C 
ATOM     19  O1  UNL     1       3.959  59.881  72.442  0.00  0.00    +0.000 OA
BRANCH  18  20
ATOM     20  C4  UNL     1       2.580  61.803  72.873  0.00  0.00    +0.000 C 
BRANCH  20  21
ATOM     21  C3  UNL     1       1.079  62.189  72.898  0.00  0.00    +0.000 C 
BRANCH  21  22
ATOM     22  C19 UNL     1       0.520  62.498  74.323  0.00  0.00    +0.000 C 
ATOM     23  C20 UNL     1       0.856  61.409  75.346  0.00  0.00    +0.000 C 
ATOM     24  C21 UNL     1       1.028  63.842  74.866  0.00  0.00    +0.000 C 
ENDBRANCH  21  22
BRANCH  21  26
ATOM     25  C1  UNL     1      -0.112  62.920  70.741  0.00  0.00    +0.000 C 
ATOM     26  C2  UNL     1       0.817  63.327  71.880  0.00  0.00    +0.000 C 
ENDBRANCH  21  26
ENDBRANCH  20  21
ENDBRANCH  18  20
ENDBRANCH   1  18
TORSDOF 8
ENDMDL
MODEL 8
REMARK VINA RESULT:    -7.282     19.043     21.037
REMARK INTER + INTRA:         -10.564
REMARK INTER:                  -8.770
REMARK INTRA:                  -1.795
REMARK UNBOUND:                -0.090
REMARK  Name = laboratorio_evolutivo\Gen5_Mutante_6.pdb
REMARK  13 active torsions:
REMARK  status: ('A' for Active; 'I' for Inactive)
REMARK    1  A    between atoms: C1_1  and  C2_2
REMARK    2  A    between atoms: C2_2  and  C3_3
REMARK    3  A    between atoms: C3_3  and  C4_4
REMARK    4  A    between atoms: C3_3  and  C19_23
REMARK    5  A    between atoms: C4_4  and  C5_5
REMARK    6  A    between atoms: C5_5  and  C6_7
REMARK    7  A    between atoms: C7_8  and  C8_9
REMARK    8  A    between atoms: C11_12  and  C12_13
REMARK    9  A    between atoms: C14_16  and  C15_17
REMARK   10  A    between atoms: C17_19  and  C18_20
REMARK   11  A    between atoms: N2_21  and  O2_22
REMARK   12  A    between atoms: C19_23  and  C20_24
REMARK   13  A    between atoms: C19_23  and  C21_25
REMARK                            x       y       z     vdW  Elec       q    Type
REMARK                         _______ _______ _______ _____ _____    ______ ____
ROOT
ATOM      1  C6  UNL     1      11.525  49.855  58.419  0.00  0.00    +0.000 C 
ATOM      2  C7  UNL     1      10.060  50.211  58.103  0.00  0.00    +0.000 C 
ATOM      3  C8  UNL     1       9.641  50.167  56.643  0.00  0.00    +0.000 C 
ATOM      4  C9  UNL     1       9.239  49.276  58.990  0.00  0.00    +0.000 C 
ATOM      5  C10 UNL     1      10.155  48.910  60.163  0.00  0.00    +0.000 C 
ATOM      6  C11 UNL     1      11.464  49.713  59.973  0.00  0.00    +0.000 C 
ENDROOT
BRANCH   6   7
ATOM      7  C12 UNL     1      12.702  49.226  60.708  0.00  0.00    +0.000 C 
ATOM      8  C13 UNL     1      12.889  47.869  60.958  0.00  0.00    +0.000 C 
ATOM      9  N1  UNL     1      13.906  47.324  61.668  0.00  0.00    +0.000 NA
ATOM     10  C14 UNL     1      14.852  48.155  62.147  0.00  0.00    +0.000 C 
ATOM     11  C15 UNL     1      15.972  47.553  62.940  0.00  0.00    +0.000 C 
ATOM     12  C16 UNL     1      14.831  49.511  61.878  0.00  0.00    +0.000 C 
ATOM     13  C17 UNL     1      13.774  50.033  61.120  0.00  0.00    +0.000 C 
BRANCH  13  14
ATOM     14  C18 UNL     1      13.966  51.437  60.722  0.00  0.00    +0.000 C 
ATOM     15  N2  UNL     1      15.088  52.054  60.917  0.00  0.00    +0.000 NA
BRANCH  15  16
ATOM     16  O2  UNL     1      14.952  53.380  60.486  0.00  0.00    +0.000 OA
ATOM     17  H   UNL     1      15.213  54.084  61.047  0.00  0.00    +0.000 HD
ENDBRANCH  15  16
ENDBRANCH  13  14
ENDBRANCH   6   7
BRANCH   1  18
ATOM     18  C5  UNL     1      11.983  48.573  57.686  0.00  0.00    +0.000 C 
ATOM     19  O1  UNL     1      11.301  47.549  57.695  0.00  0.00    +0.000 OA
BRANCH  18  20
ATOM     20  C4  UNL     1      13.347  48.599  56.993  0.00  0.00    +0.000 C 
BRANCH  20  21
ATOM     21  C3  UNL     1      14.411  49.557  57.586  0.00  0.00    +0.000 C 
BRANCH  21  22
ATOM     22  C19 UNL     1      15.705  48.844  58.094  0.00  0.00    +0.000 C 
ATOM     23  C20 UNL     1      15.491  47.354  58.381  0.00  0.00    +0.000 C 
ATOM     24  C21 UNL     1      16.870  48.981  57.103  0.00  0.00    +0.000 C 
ENDBRANCH  21  22
BRANCH  21  26
ATOM     25  C1  UNL     1      14.953  52.047  57.250  0.00  0.00    +0.000 C 
ATOM     26  C2  UNL     1      14.701  50.699  56.580  0.00  0.00    +0.000 C 
ENDBRANCH  21  26
ENDBRANCH  20  21
ENDBRANCH  18  20
ENDBRANCH   1  18
TORSDOF 8
ENDMDL
MODEL 9
REMARK VINA RESULT:    -7.246      2.372      5.599
REMARK INTER + INTRA:         -10.513
REMARK INTER:                  -9.127
REMARK INTRA:                  -1.387
REMARK UNBOUND:                -0.090
REMARK  Name = laboratorio_evolutivo\Gen5_Mutante_6.pdb
REMARK  13 active torsions:
REMARK  status: ('A' for Active; 'I' for Inactive)
REMARK    1  A    between atoms: C1_1  and  C2_2
REMARK    2  A    between atoms: C2_2  and  C3_3
REMARK    3  A    between atoms: C3_3  and  C4_4
REMARK    4  A    between atoms: C3_3  and  C19_23
REMARK    5  A    between atoms: C4_4  and  C5_5
REMARK    6  A    between atoms: C5_5  and  C6_7
REMARK    7  A    between atoms: C7_8  and  C8_9
REMARK    8  A    between atoms: C11_12  and  C12_13
REMARK    9  A    between atoms: C14_16  and  C15_17
REMARK   10  A    between atoms: C17_19  and  C18_20
REMARK   11  A    between atoms: N2_21  and  O2_22
REMARK   12  A    between atoms: C19_23  and  C20_24
REMARK   13  A    between atoms: C19_23  and  C21_25
REMARK                            x       y       z     vdW  Elec       q    Type
REMARK                         _______ _______ _______ _____ _____    ______ ____
ROOT
ATOM      1  C6  UNL     1       3.211  61.236  71.817  0.00  0.00    +0.000 C 
ATOM      2  C7  UNL     1       4.222  61.818  70.809  0.00  0.00    +0.000 C 
ATOM      3  C8  UNL     1       5.473  61.000  70.540  0.00  0.00    +0.000 C 
ATOM      4  C9  UNL     1       3.397  62.083  69.550  0.00  0.00    +0.000 C 
ATOM      5  C10 UNL     1       1.952  62.256  70.032  0.00  0.00    +0.000 C 
ATOM      6  C11 UNL     1       1.984  62.173  71.577  0.00  0.00    +0.000 C 
ENDROOT
BRANCH   6   7
ATOM      7  C12 UNL     1       0.681  61.862  72.293  0.00  0.00    +0.000 C 
ATOM      8  C13 UNL     1      -0.205  60.922  71.773  0.00  0.00    +0.000 C 
ATOM      9  N1  UNL     1      -1.426  60.617  72.276  0.00  0.00    +0.000 NA
ATOM     10  C14 UNL     1      -1.815  61.245  73.403  0.00  0.00    +0.000 C 
ATOM     11  C15 UNL     1      -3.169  60.915  73.953  0.00  0.00    +0.000 C 
ATOM     12  C16 UNL     1      -0.981  62.124  74.068  0.00  0.00    +0.000 C 
ATOM     13  C17 UNL     1       0.284  62.395  73.529  0.00  0.00    +0.000 C 
BRANCH  13  14
ATOM     14  C18 UNL     1       1.157  63.172  74.424  0.00  0.00    +0.000 C 
ATOM     15  N2  UNL     1       0.867  63.351  75.674  0.00  0.00    +0.000 NA
BRANCH  15  16
ATOM     16  O2  UNL     1       1.848  64.167  76.250  0.00  0.00    +0.000 OA
ATOM     17  H   UNL     1       2.628  64.371  75.772  0.00  0.00    +0.000 HD
ENDBRANCH  15  16
ENDBRANCH  13  14
ENDBRANCH   6   7
BRANCH   1  18
ATOM     18  C5  UNL     1       2.924  59.741  71.554  0.00  0.00    +0.000 C 
ATOM     19  O1  UNL     1       2.673  59.323  70.424  0.00  0.00    +0.000 OA
BRANCH  18  20
ATOM     20  C4  UNL     1       2.903  58.798  72.759  0.00  0.00    +0.000 C 
BRANCH  20  21
ATOM     21  C3  UNL     1       1.512  58.306  73.234  0.00  0.00    +0.000 C 
BRANCH  21  22
ATOM     22  C19 UNL     1       1.314  56.759  73.146  0.00  0.00    +0.000 C 
ATOM     23  C20 UNL     1       1.775  56.026  74.409  0.00  0.00    +0.000 C 
ATOM     24  C21 UNL     1      -0.148  56.376  72.873  0.00  0.00    +0.000 C 
ENDBRANCH  21  22
BRANCH  21  26
ATOM     25  C1  UNL     1       2.358  59.699  75.221  0.00  0.00    +0.000 C 
ATOM     26  C2  UNL     1       1.209  58.879  74.641  0.00  0.00    +0.000 C 
ENDBRANCH  21  26
ENDBRANCH  20  21
ENDBRANCH  18  20
ENDBRANCH   1  18
TORSDOF 8
ENDMDL
