MODEL 1
REMARK VINA RESULT:    -7.080      0.000      0.000
REMARK INTER + INTRA:         -11.104
REMARK INTER:                 -10.185
REMARK INTRA:                  -0.919
REMARK UNBOUND:                -0.919
REMARK  Name = laboratorio_evolutivo\Gen5_Mutante_6.pdb
REMARK  13 active torsions:
REMARK  status: ('A' for Active; 'I' for Inactive)
REMARK    1  A    between atoms: C1_1  and  C2_2
REMARK    2  A    between atoms: C2_2  and  C3_3
REMARK    3  A    between atoms: C3_3  and  C4_4
REMARK    4  A    between atoms: C3_3  and  C19_23
REMARK    5  A    between atoms: C4_4  and  C5_5
REMARK    6  A    between atoms: C5_5  and  C6_7
REMARK    7  A    between atoms: C7_8  and  C8_9
REMARK    8  A    between atoms: C11_12  and  C12_13
REMARK    9  A    between atoms: C14_16  and  C15_17
REMARK   10  A    between atoms: C17_19  and  C18_20
REMARK   11  A    between atoms: N2_21  and  O2_22
REMARK   12  A    between atoms: C19_23  and  C20_24
REMARK   13  A    between atoms: C19_23  and  C21_25
REMARK                            x       y       z     vdW  Elec       q    Type
REMARK                         _______ _______ _______ _____ _____    ______ ____
ROOT
ATOM      1  C6  UNL     1       1.594   2.039  18.662  0.00  0.00    +0.000 C 
ATOM      2  C7  UNL     1       1.966   1.487  17.272  0.00  0.00    +0.000 C 
ATOM      3  C8  UNL     1       2.646   0.129  17.231  0.00  0.00    +0.000 C 
ATOM      4  C9  UNL     1       0.657   1.525  16.483  0.00  0.00    +0.000 C 
ATOM      5  C10 UNL     1      -0.196   2.609  17.152  0.00  0.00    +0.000 C 
ATOM      6  C11 UNL     1       0.674   3.238  18.266  0.00  0.00    +0.000 C 
ENDROOT
BRANCH   6   7
ATOM      7  C12 UNL     1      -0.037   4.003  19.368  0.00  0.00    +0.000 C 
ATOM      8  C13 UNL     1      -1.300   3.608  19.803  0.00  0.00    +0.000 C 
ATOM      9  N1  UNL     1      -2.064   4.253  20.719  0.00  0.00    +0.000 NA
ATOM     10  C14 UNL     1      -1.551   5.355  21.297  0.00  0.00    +0.000 C 
ATOM     11  C15 UNL     1      -2.399   6.074  22.302  0.00  0.00    +0.000 C 
ATOM     12  C16 UNL     1      -0.267   5.790  21.023  0.00  0.00    +0.000 C 
ATOM     13  C17 UNL     1       0.499   5.082  20.088  0.00  0.00    +0.000 C 
BRANCH  13  14
ATOM     14  C18 UNL     1       1.909   5.504  20.034  0.00  0.00    +0.000 C 
ATOM     15  N2  UNL     1       2.640   5.579  21.101  0.00  0.00    +0.000 NA
BRANCH  15  16
ATOM     16  O2  UNL     1       3.908   6.055  20.745  0.00  0.00    +0.000 OA
ATOM     17  H   UNL     1       4.554   6.206  21.406  0.00  0.00    +0.000 HD
ENDBRANCH  15  16
ENDBRANCH  13  14
ENDBRANCH   6   7
BRANCH   1  18
ATOM     18  C5  UNL     1       0.901   0.976  19.544  0.00  0.00    +0.000 C 
ATOM     19  O1  UNL     1       0.092   0.177  19.071  0.00  0.00    +0.000 OA
BRANCH  18  20
ATOM     20  C4  UNL     1       1.209   0.984  21.043  0.00  0.00    +0.000 C 
BRANCH  20  21
ATOM     21  C3  UNL     1       2.483   0.226  21.495  0.00  0.00    +0.000 C 
BRANCH  21  22
ATOM     22  C19 UNL     1       3.579   1.138  22.132  0.00  0.00    +0.000 C 
ATOM     23  C20 UNL     1       4.099   2.209  21.167  0.00  0.00    +0.000 C 
ATOM     24  C21 UNL     1       3.084   1.838  23.406  0.00  0.00    +0.000 C 
ENDBRANCH  21  22
BRANCH  21  26
ATOM     25  C1  UNL     1       2.241  -2.323  21.715  0.00  0.00    +0.000 C 
ATOM     26  C2  UNL     1       2.085  -0.968  22.398  0.00  0.00    +0.000 C 
ENDBRANCH  21  26
ENDBRANCH  20  21
ENDBRANCH  18  20
ENDBRANCH   1  18
TORSDOF 8
ENDMDL
MODEL 2
REMARK VINA RESULT:    -6.841      2.416      3.765
REMARK INTER + INTRA:         -10.759
REMARK INTER:                 -10.272
REMARK INTRA:                  -0.488
REMARK UNBOUND:                -0.919
REMARK  Name = laboratorio_evolutivo\Gen5_Mutante_6.pdb
REMARK  13 active torsions:
REMARK  status: ('A' for Active; 'I' for Inactive)
REMARK    1  A    between atoms: C1_1  and  C2_2
REMARK    2  A    between atoms: C2_2  and  C3_3
REMARK    3  A    between atoms: C3_3  and  C4_4
REMARK    4  A    between atoms: C3_3  and  C19_23
REMARK    5  A    between atoms: C4_4  and  C5_5
REMARK    6  A    between atoms: C5_5  and  C6_7
REMARK    7  A    between atoms: C7_8  and  C8_9
REMARK    8  A    between atoms: C11_12  and  C12_13
REMARK    9  A    between atoms: C14_16  and  C15_17
REMARK   10  A    between atoms: C17_19  and  C18_20
REMARK   11  A    between atoms: N2_21  and  O2_22
REMARK   12  A    between atoms: C19_23  and  C20_24
REMARK   13  A    between atoms: C19_23  and  C21_25
REMARK                            x       y       z     vdW  Elec       q    Type
REMARK                         _______ _______ _______ _____ _____    ______ ____
ROOT
ATOM      1  C6  UNL     1       2.099   1.064  18.774  0.00  0.00    +0.000 C 
ATOM      2  C7  UNL     1       1.955   1.432  17.285  0.00  0.00    +0.000 C 
ATOM      3  C8  UNL     1       1.109   0.505  16.427  0.00  0.00    +0.000 C 
ATOM      4  C9  UNL     1       1.444   2.871  17.294  0.00  0.00    +0.000 C 
ATOM      5  C10 UNL     1       1.897   3.462  18.634  0.00  0.00    +0.000 C 
ATOM      6  C11 UNL     1       2.740   2.372  19.339  0.00  0.00    +0.000 C 
ENDROOT
BRANCH   6   7
ATOM      7  C12 UNL     1       2.937   2.495  20.840  0.00  0.00    +0.000 C 
ATOM      8  C13 UNL     1       3.045   1.357  21.636  0.00  0.00    +0.000 C 
ATOM      9  N1  UNL     1       3.144   1.339  22.988  0.00  0.00    +0.000 NA
ATOM     10  C14 UNL     1       3.180   2.522  23.630  0.00  0.00    +0.000 C 
ATOM     11  C15 UNL     1       3.280   2.501  25.125  0.00  0.00    +0.000 C 
ATOM     12  C16 UNL     1       3.182   3.721  22.943  0.00  0.00    +0.000 C 
ATOM     13  C17 UNL     1       3.103   3.698  21.544  0.00  0.00    +0.000 C 
BRANCH  13  14
ATOM     14  C18 UNL     1       3.325   5.011  20.915  0.00  0.00    +0.000 C 
ATOM     15  N2  UNL     1       2.581   6.035  21.192  0.00  0.00    +0.000 NA
BRANCH  15  16
ATOM     16  O2  UNL     1       2.996   7.118  20.407  0.00  0.00    +0.000 OA
ATOM     17  H   UNL     1       2.399   7.516  19.806  0.00  0.00    +0.000 HD
ENDBRANCH  15  16
ENDBRANCH  13  14
ENDBRANCH   6   7
BRANCH   1  18
ATOM     18  C5  UNL     1       0.742   0.697  19.417  0.00  0.00    +0.000 C 
ATOM     19  O1  UNL     1      -0.007   1.561  19.874  0.00  0.00    +0.000 OA
BRANCH  18  20
ATOM     20  C4  UNL     1       0.381  -0.786  19.522  0.00  0.00    +0.000 C 
BRANCH  20  21
ATOM     21  C3  UNL     1       1.556  -1.774  19.736  0.00  0.00    +0.000 C 
BRANCH  21  22
ATOM     22  C19 UNL     1       1.401  -2.694  20.988  0.00  0.00    +0.000 C 
ATOM     23  C20 UNL     1       2.249  -2.232  22.177  0.00  0.00    +0.000 C 
ATOM     24  C21 UNL     1      -0.059  -2.802  21.451  0.00  0.00    +0.000 C 
ENDBRANCH  21  22
BRANCH  21  26
ATOM     25  C1  UNL     1       2.728  -3.772  18.621  0.00  0.00    +0.000 C 
ATOM     26  C2  UNL     1       1.815  -2.564  18.428  0.00  0.00    +0.000 C 
ENDBRANCH  21  26
ENDBRANCH  20  21
ENDBRANCH  18  20
ENDBRANCH   1  18
TORSDOF 8
ENDMDL
MODEL 3
REMARK VINA RESULT:    -6.656      2.854      5.045
REMARK INTER + INTRA:         -10.493
REMARK INTER:                  -9.300
REMARK INTRA:                  -1.193
REMARK UNBOUND:                -0.919
REMARK  Name = laboratorio_evolutivo\Gen5_Mutante_6.pdb
REMARK  13 active torsions:
REMARK  status: ('A' for Active; 'I' for Inactive)
REMARK    1  A    between atoms: C1_1  and  C2_2
REMARK    2  A    between atoms: C2_2  and  C3_3
REMARK    3  A    between atoms: C3_3  and  C4_4
REMARK    4  A    between atoms: C3_3  and  C19_23
REMARK    5  A    between atoms: C4_4  and  C5_5
REMARK    6  A    between atoms: C5_5  and  C6_7
REMARK    7  A    between atoms: C7_8  and  C8_9
REMARK    8  A    between atoms: C11_12  and  C12_13
REMARK    9  A    between atoms: C14_16  and  C15_17
REMARK   10  A    between atoms: C17_19  and  C18_20
REMARK   11  A    between atoms: N2_21  and  O2_22
REMARK   12  A    between atoms: C19_23  and  C20_24
REMARK   13  A    between atoms: C19_23  and  C21_25
REMARK                            x       y       z     vdW  Elec       q    Type
REMARK                         _______ _______ _______ _____ _____    ______ ____
ROOT
ATOM      1  C6  UNL     1       1.272   0.922  19.149  0.00  0.00    +0.000 C 
ATOM      2  C7  UNL     1       1.306   0.897  17.609  0.00  0.00    +0.000 C 
ATOM      3  C8  UNL     1       0.110   0.277  16.905  0.00  0.00    +0.000 C 
ATOM      4  C9  UNL     1       1.549   2.351  17.208  0.00  0.00    +0.000 C 
ATOM      5  C10 UNL     1       2.245   2.999  18.410  0.00  0.00    +0.000 C 
ATOM      6  C11 UNL     1       2.468   1.880  19.454  0.00  0.00    +0.000 C 
ENDROOT
BRANCH   6   7
ATOM      7  C12 UNL     1       2.716   2.297  20.893  0.00  0.00    +0.000 C 
ATOM      8  C13 UNL     1       2.566   3.627  21.281  0.00  0.00    +0.000 C 
ATOM      9  N1  UNL     1       2.833   4.132  22.510  0.00  0.00    +0.000 NA
ATOM     10  C14 UNL     1       3.244   3.275  23.464  0.00  0.00    +0.000 C 
ATOM     11  C15 UNL     1       3.548   3.834  24.820  0.00  0.00    +0.000 C 
ATOM     12  C16 UNL     1       3.334   1.915  23.229  0.00  0.00    +0.000 C 
ATOM     13  C17 UNL     1       3.026   1.429  21.951  0.00  0.00    +0.000 C 
BRANCH  13  14
ATOM     14  C18 UNL     1       2.953  -0.039  21.877  0.00  0.00    +0.000 C 
ATOM     15  N2  UNL     1       2.047  -0.711  22.515  0.00  0.00    +0.000 NA
BRANCH  15  16
ATOM     16  O2  UNL     1       2.260  -2.077  22.295  0.00  0.00    +0.000 OA
ATOM     17  H   UNL     1       1.678  -2.708  22.668  0.00  0.00    +0.000 HD
ENDBRANCH  15  16
ENDBRANCH  13  14
ENDBRANCH   6   7
BRANCH   1  18
ATOM     18  C5  UNL     1      -0.087   1.418  19.693  0.00  0.00    +0.000 C 
ATOM     19  O1  UNL     1      -0.484   2.564  19.484  0.00  0.00    +0.000 OA
BRANCH  18  20
ATOM     20  C4  UNL     1      -0.904   0.452  20.554  0.00  0.00    +0.000 C 
BRANCH  20  21
ATOM     21  C3  UNL     1      -2.073  -0.287  19.854  0.00  0.00    +0.000 C 
BRANCH  21  22
ATOM     22  C19 UNL     1      -2.047  -1.839  20.029  0.00  0.00    +0.000 C 
ATOM     23  C20 UNL     1      -1.651  -2.577  18.747  0.00  0.00    +0.000 C 
ATOM     24  C21 UNL     1      -1.096  -2.280  21.151  0.00  0.00    +0.000 C 
ENDBRANCH  21  22
BRANCH  21  26
ATOM     25  C1  UNL     1      -4.597  -0.617  20.206  0.00  0.00    +0.000 C 
ATOM     26  C2  UNL     1      -3.420   0.351  20.276  0.00  0.00    +0.000 C 
ENDBRANCH  21  26
ENDBRANCH  20  21
ENDBRANCH  18  20
ENDBRANCH   1  18
TORSDOF 8
ENDMDL
MODEL 4
REMARK VINA RESULT:    -6.647     23.855     26.405
REMARK INTER + INTRA:         -10.480
REMARK INTER:                  -9.225
REMARK INTRA:                  -1.255
REMARK UNBOUND:                -0.919
REMARK  Name = laboratorio_evolutivo\Gen5_Mutante_6.pdb
REMARK  13 active torsions:
REMARK  status: ('A' for Active; 'I' for Inactive)
REMARK    1  A    between atoms: C1_1  and  C2_2
REMARK    2  A    between atoms: C2_2  and  C3_3
REMARK    3  A    between atoms: C3_3  and  C4_4
REMARK    4  A    between atoms: C3_3  and  C19_23
REMARK    5  A    between atoms: C4_4  and  C5_5
REMARK    6  A    between atoms: C5_5  and  C6_7
REMARK    7  A    between atoms: C7_8  and  C8_9
REMARK    8  A    between atoms: C11_12  and  C12_13
REMARK    9  A    between atoms: C14_16  and  C15_17
REMARK   10  A    between atoms: C17_19  and  C18_20
REMARK   11  A    between atoms: N2_21  and  O2_22
REMARK   12  A    between atoms: C19_23  and  C20_24
REMARK   13  A    between atoms: C19_23  and  C21_25
REMARK                            x       y       z     vdW  Elec       q    Type
REMARK                         _______ _______ _______ _____ _____    ______ ____
ROOT
ATOM      1  C6  UNL     1      16.454  -8.298   0.946  0.00  0.00    +0.000 C 
ATOM      2  C7  UNL     1      15.614  -9.554   0.642  0.00  0.00    +0.000 C 
ATOM      3  C8  UNL     1      16.334 -10.891   0.695  0.00  0.00    +0.000 C 
ATOM      4  C9  UNL     1      14.435  -9.469   1.610  0.00  0.00    +0.000 C 
ATOM      5  C10 UNL     1      14.284  -7.982   1.947  0.00  0.00    +0.000 C 
ATOM      6  C11 UNL     1      15.330  -7.223   1.096  0.00  0.00    +0.000 C 
ENDROOT
BRANCH   6   7
ATOM      7  C12 UNL     1      15.718  -5.823   1.541  0.00  0.00    +0.000 C 
ATOM      8  C13 UNL     1      15.435  -5.386   2.832  0.00  0.00    +0.000 C 
ATOM      9  N1  UNL     1      15.660  -4.141   3.318  0.00  0.00    +0.000 NA
ATOM     10  C14 UNL     1      16.246  -3.246   2.501  0.00  0.00    +0.000 C 
ATOM     11  C15 UNL     1      16.487  -1.867   3.034  0.00  0.00    +0.000 C 
ATOM     12  C16 UNL     1      16.667  -3.590   1.229  0.00  0.00    +0.000 C 
ATOM     13  C17 UNL     1      16.437  -4.895   0.772  0.00  0.00    +0.000 C 
BRANCH  13  14
ATOM     14  C18 UNL     1      17.109  -5.205  -0.500  0.00  0.00    +0.000 C 
ATOM     15  N2  UNL     1      16.950  -4.468  -1.554  0.00  0.00    +0.000 NA
BRANCH  15  16
ATOM     16  O2  UNL     1      17.666  -5.038  -2.614  0.00  0.00    +0.000 OA
ATOM     17  H   UNL     1      17.250  -5.656  -3.181  0.00  0.00    +0.000 HD
ENDBRANCH  15  16
ENDBRANCH  13  14
ENDBRANCH   6   7
BRANCH   1  18
ATOM     18  C5  UNL     1      17.330  -8.475   2.207  0.00  0.00    +0.000 C 
ATOM     19  O1  UNL     1      16.830  -8.597   3.325  0.00  0.00    +0.000 OA
BRANCH  18  20
ATOM     20  C4  UNL     1      18.849  -8.436   2.029  0.00  0.00    +0.000 C 
BRANCH  20  21
ATOM     21  C3  UNL     1      19.610  -7.317   2.784  0.00  0.00    +0.000 C 
BRANCH  21  22
ATOM     22  C19 UNL     1      20.643  -7.838   3.833  0.00  0.00    +0.000 C 
ATOM     23  C20 UNL     1      20.121  -9.027   4.645  0.00  0.00    +0.000 C 
ATOM     24  C21 UNL     1      21.973  -8.247   3.183  0.00  0.00    +0.000 C 
ENDBRANCH  21  22
BRANCH  21  26
ATOM     25  C1  UNL     1      20.022  -4.862   2.143  0.00  0.00    +0.000 C 
ATOM     26  C2  UNL     1      20.225  -6.326   1.764  0.00  0.00    +0.000 C 
ENDBRANCH  21  26
ENDBRANCH  20  21
ENDBRANCH  18  20
ENDBRANCH   1  18
TORSDOF 8
ENDMDL
MODEL 5
REMARK VINA RESULT:    -6.625     26.082     28.368
REMARK INTER + INTRA:         -10.449
REMARK INTER:                  -9.293
REMARK INTRA:                  -1.156
REMARK UNBOUND:                -0.919
REMARK  Name = laboratorio_evolutivo\Gen5_Mutante_6.pdb
REMARK  13 active torsions:
REMARK  status: ('A' for Active; 'I' for Inactive)
REMARK    1  A    between atoms: C1_1  and  C2_2
REMARK    2  A    between atoms: C2_2  and  C3_3
REMARK    3  A    between atoms: C3_3  and  C4_4
REMARK    4  A    between atoms: C3_3  and  C19_23
REMARK    5  A    between atoms: C4_4  and  C5_5
REMARK    6  A    between atoms: C5_5  and  C6_7
REMARK    7  A    between atoms: C7_8  and  C8_9
REMARK    8  A    between atoms: C11_12  and  C12_13
REMARK    9  A    between atoms: C14_16  and  C15_17
REMARK   10  A    between atoms: C17_19  and  C18_20
REMARK   11  A    between atoms: N2_21  and  O2_22
REMARK   12  A    between atoms: C19_23  and  C20_24
REMARK   13  A    between atoms: C19_23  and  C21_25
REMARK                            x       y       z     vdW  Elec       q    Type
REMARK                         _______ _______ _______ _____ _____    ______ ____
ROOT
ATOM      1  C6  UNL     1      17.200  -8.065   1.923  0.00  0.00    +0.000 C 
ATOM      2  C7  UNL     1      15.715  -8.280   2.274  0.00  0.00    +0.000 C 
ATOM      3  C8  UNL     1      14.708  -8.076   1.155  0.00  0.00    +0.000 C 
ATOM      4  C9  UNL     1      15.665  -9.683   2.877  0.00  0.00    +0.000 C 
ATOM      5  C10 UNL     1      17.073  -9.951   3.418  0.00  0.00    +0.000 C 
ATOM      6  C11 UNL     1      17.891  -8.657   3.193  0.00  0.00    +0.000 C 
ENDROOT
BRANCH   6   7
ATOM      7  C12 UNL     1      19.406  -8.768   3.211  0.00  0.00    +0.000 C 
ATOM      8  C13 UNL     1      20.023 -10.014   3.288  0.00  0.00    +0.000 C 
ATOM      9  N1  UNL     1      21.356 -10.236   3.389  0.00  0.00    +0.000 NA
ATOM     10  C14 UNL     1      22.173  -9.166   3.376  0.00  0.00    +0.000 C 
ATOM     11  C15 UNL     1      23.646  -9.410   3.498  0.00  0.00    +0.000 C 
ATOM     12  C16 UNL     1      21.686  -7.883   3.202  0.00  0.00    +0.000 C 
ATOM     13  C17 UNL     1      20.303  -7.697   3.077  0.00  0.00    +0.000 C 
BRANCH  13  14
ATOM     14  C18 UNL     1      19.920  -6.330   2.688  0.00  0.00    +0.000 C 
ATOM     15  N2  UNL     1      20.297  -5.810   1.563  0.00  0.00    +0.000 NA
BRANCH  15  16
ATOM     16  O2  UNL     1      19.828  -4.492   1.497  0.00  0.00    +0.000 OA
ATOM     17  H   UNL     1      20.417  -3.795   1.288  0.00  0.00    +0.000 HD
ENDBRANCH  15  16
ENDBRANCH  13  14
ENDBRANCH   6   7
BRANCH   1  18
ATOM     18  C5  UNL     1      17.594  -8.768   0.605  0.00  0.00    +0.000 C 
ATOM     19  O1  UNL     1      17.528  -9.991   0.484  0.00  0.00    +0.000 OA
BRANCH  18  20
ATOM     20  C4  UNL     1      18.128  -7.897  -0.535  0.00  0.00    +0.000 C 
BRANCH  20  21
ATOM     21  C3  UNL     1      17.140  -7.572  -1.684  0.00  0.00    +0.000 C 
BRANCH  21  22
ATOM     22  C19 UNL     1      16.986  -6.048  -1.986  0.00  0.00    +0.000 C 
ATOM     23  C20 UNL     1      15.994  -5.351  -1.049  0.00  0.00    +0.000 C 
ATOM     24  C21 UNL     1      18.326  -5.302  -1.908  0.00  0.00    +0.000 C 
ENDBRANCH  21  22
BRANCH  21  26
ATOM     25  C1  UNL     1      16.696  -9.694  -3.066  0.00  0.00    +0.000 C 
ATOM     26  C2  UNL     1      17.507  -8.407  -2.937  0.00  0.00    +0.000 C 
ENDBRANCH  21  26
ENDBRANCH  20  21
ENDBRANCH  18  20
ENDBRANCH   1  18
TORSDOF 8
ENDMDL
MODEL 6
REMARK VINA RESULT:    -6.595      2.681      5.569
REMARK INTER + INTRA:         -10.405
REMARK INTER:                  -9.200
REMARK INTRA:                  -1.205
REMARK UNBOUND:                -0.919
REMARK  Name = laboratorio_evolutivo\Gen5_Mutante_6.pdb
REMARK  13 active torsions:
REMARK  status: ('A' for Active; 'I' for Inactive)
REMARK    1  A    between atoms: C1_1  and  C2_2
REMARK    2  A    between atoms: C2_2  and  C3_3
REMARK    3  A    between atoms: C3_3  and  C4_4
REMARK    4  A    between atoms: C3_3  and  C19_23
REMARK    5  A    between atoms: C4_4  and  C5_5
REMARK    6  A    between atoms: C5_5  and  C6_7
REMARK    7  A    between atoms: C7_8  and  C8_9
REMARK    8  A    between atoms: C11_12  and  C12_13
REMARK    9  A    between atoms: C14_16  and  C15_17
REMARK   10  A    between atoms: C17_19  and  C18_20
REMARK   11  A    between atoms: N2_21  and  O2_22
REMARK   12  A    between atoms: C19_23  and  C20_24
REMARK   13  A    between atoms: C19_23  and  C21_25
REMARK                            x       y       z     vdW  Elec       q    Type
REMARK                         _______ _______ _______ _____ _____    ______ ____
ROOT
ATOM      1  C6  UNL     1       0.083   2.730  19.630  0.00  0.00    +0.000 C 
ATOM      2  C7  UNL     1      -1.084   3.736  19.601  0.00  0.00    +0.000 C 
ATOM      3  C8  UNL     1      -0.744   5.192  19.872  0.00  0.00    +0.000 C 
ATOM      4  C9  UNL     1      -1.743   3.518  18.240  0.00  0.00    +0.000 C 
ATOM      5  C10 UNL     1      -1.390   2.082  17.836  0.00  0.00    +0.000 C 
ATOM      6  C11 UNL     1      -0.602   1.467  19.017  0.00  0.00    +0.000 C 
ENDROOT
BRANCH   6   7
ATOM      7  C12 UNL     1       0.252   0.243  18.734  0.00  0.00    +0.000 C 
ATOM      8  C13 UNL     1       0.392  -0.237  17.434  0.00  0.00    +0.000 C 
ATOM      9  N1  UNL     1       1.059  -1.358  17.068  0.00  0.00    +0.000 NA
ATOM     10  C14 UNL     1       1.680  -2.061  18.034  0.00  0.00    +0.000 C 
ATOM     11  C15 UNL     1       2.410  -3.307  17.631  0.00  0.00    +0.000 C 
ATOM     12  C16 UNL     1       1.699  -1.631  19.348  0.00  0.00    +0.000 C 
ATOM     13  C17 UNL     1       1.017  -0.453  19.682  0.00  0.00    +0.000 C 
BRANCH  13  14
ATOM     14  C18 UNL     1       1.280   0.017  21.052  0.00  0.00    +0.000 C 
ATOM     15  N2  UNL     1       0.577  -0.393  22.060  0.00  0.00    +0.000 NA
BRANCH  15  16
ATOM     16  O2  UNL     1       1.023   0.262  23.215  0.00  0.00    +0.000 OA
ATOM     17  H   UNL     1       1.749   0.853  23.168  0.00  0.00    +0.000 HD
ENDBRANCH  15  16
ENDBRANCH  13  14
ENDBRANCH   6   7
BRANCH   1  18
ATOM     18  C5  UNL     1       1.306   3.235  18.832  0.00  0.00    +0.000 C 
ATOM     19  O1  UNL     1       1.296   3.282  17.602  0.00  0.00    +0.000 OA
BRANCH  18  20
ATOM     20  C4  UNL     1       2.559   3.624  19.619  0.00  0.00    +0.000 C 
BRANCH  20  21
ATOM     21  C3  UNL     1       2.356   4.001  21.109  0.00  0.00    +0.000 C 
BRANCH  21  22
ATOM     22  C19 UNL     1       2.999   2.997  22.118  0.00  0.00    +0.000 C 
ATOM     23  C20 UNL     1       4.045   2.085  21.468  0.00  0.00    +0.000 C 
ATOM     24  C21 UNL     1       3.657   3.712  23.307  0.00  0.00    +0.000 C 
ENDBRANCH  21  22
BRANCH  21  26
ATOM     25  C1  UNL     1       2.716   6.331  20.085  0.00  0.00    +0.000 C 
ATOM     26  C2  UNL     1       2.802   5.467  21.340  0.00  0.00    +0.000 C 
ENDBRANCH  21  26
ENDBRANCH  20  21
ENDBRANCH  18  20
ENDBRANCH   1  18
TORSDOF 8
ENDMDL
MODEL 7
REMARK VINA RESULT:    -6.498      3.073      5.497
REMARK INTER + INTRA:         -10.266
REMARK INTER:                  -8.990
REMARK INTRA:                  -1.276
REMARK UNBOUND:                -0.919
REMARK  Name = laboratorio_evolutivo\Gen5_Mutante_6.pdb
REMARK  13 active torsions:
REMARK  status: ('A' for Active; 'I' for Inactive)
REMARK    1  A    between atoms: C1_1  and  C2_2
REMARK    2  A    between atoms: C2_2  and  C3_3
REMARK    3  A    between atoms: C3_3  and  C4_4
REMARK    4  A    between atoms: C3_3  and  C19_23
REMARK    5  A    between atoms: C4_4  and  C5_5
REMARK    6  A    between atoms: C5_5  and  C6_7
REMARK    7  A    between atoms: C7_8  and  C8_9
REMARK    8  A    between atoms: C11_12  and  C12_13
REMARK    9  A    between atoms: C14_16  and  C15_17
REMARK   10  A    between atoms: C17_19  and  C18_20
REMARK   11  A    between atoms: N2_21  and  O2_22
REMARK   12  A    between atoms: C19_23  and  C20_24
REMARK   13  A    between atoms: C19_23  and  C21_25
REMARK                            x       y       z     vdW  Elec       q    Type
REMARK                         _______ _______ _______ _____ _____    ______ ____
ROOT
ATOM      1  C6  UNL     1       1.760  -1.355  20.290  0.00  0.00    +0.000 C 
ATOM      2  C7  UNL     1       1.644  -2.605  21.183  0.00  0.00    +0.000 C 
ATOM      3  C8  UNL     1       2.334  -2.550  22.535  0.00  0.00    +0.000 C 
ATOM      4  C9  UNL     1       0.141  -2.862  21.287  0.00  0.00    +0.000 C 
ATOM      5  C10 UNL     1      -0.475  -2.223  20.038  0.00  0.00    +0.000 C 
ATOM      6  C11 UNL     1       0.700  -1.681  19.189  0.00  0.00    +0.000 C 
ENDROOT
BRANCH   6   7
ATOM      7  C12 UNL     1       0.386  -0.621  18.147  0.00  0.00    +0.000 C 
ATOM      8  C13 UNL     1      -0.729   0.202  18.287  0.00  0.00    +0.000 C 
ATOM      9  N1  UNL     1      -1.154   1.124  17.390  0.00  0.00    +0.000 NA
ATOM     10  C14 UNL     1      -0.420   1.299  16.275  0.00  0.00    +0.000 C 
ATOM     11  C15 UNL     1      -0.895   2.312  15.278  0.00  0.00    +0.000 C 
ATOM     12  C16 UNL     1       0.763   0.613  16.069  0.00  0.00    +0.000 C 
ATOM     13  C17 UNL     1       1.181  -0.315  17.032  0.00  0.00    +0.000 C 
BRANCH  13  14
ATOM     14  C18 UNL     1       2.545  -0.824  16.813  0.00  0.00    +0.000 C 
ATOM     15  N2  UNL     1       2.764  -1.975  16.260  0.00  0.00    +0.000 NA
BRANCH  15  16
ATOM     16  O2  UNL     1       4.145  -2.206  16.234  0.00  0.00    +0.000 OA
ATOM     17  H   UNL     1       4.498  -2.978  16.631  0.00  0.00    +0.000 HD
ENDBRANCH  15  16
ENDBRANCH  13  14
ENDBRANCH   6   7
BRANCH   1  18
ATOM     18  C5  UNL     1       1.477  -0.052  21.072  0.00  0.00    +0.000 C 
ATOM     19  O1  UNL     1       0.339   0.246  21.433  0.00  0.00    +0.000 OA
BRANCH  18  20
ATOM     20  C4  UNL     1       2.654   0.890  21.336  0.00  0.00    +0.000 C 
BRANCH  20  21
ATOM     21  C3  UNL     1       2.569   2.302  20.703  0.00  0.00    +0.000 C 
BRANCH  21  22
ATOM     22  C19 UNL     1       3.411   3.388  21.446  0.00  0.00    +0.000 C 
ATOM     23  C20 UNL     1       2.743   4.767  21.440  0.00  0.00    +0.000 C 
ATOM     24  C21 UNL     1       3.702   3.001  22.903  0.00  0.00    +0.000 C 
ENDBRANCH  21  22
BRANCH  21  26
ATOM     25  C1  UNL     1       2.050   3.163  18.338  0.00  0.00    +0.000 C 
ATOM     26  C2  UNL     1       2.888   2.214  19.190  0.00  0.00    +0.000 C 
ENDBRANCH  21  26
ENDBRANCH  20  21
ENDBRANCH  18  20
ENDBRANCH   1  18
TORSDOF 8
ENDMDL
MODEL 8
REMARK VINA RESULT:    -6.399      3.182      5.027
REMARK INTER + INTRA:         -10.124
REMARK INTER:                  -8.564
REMARK INTRA:                  -1.560
REMARK UNBOUND:                -0.919
REMARK  Name = laboratorio_evolutivo\Gen5_Mutante_6.pdb
REMARK  13 active torsions:
REMARK  status: ('A' for Active; 'I' for Inactive)
REMARK    1  A    between atoms: C1_1  and  C2_2
REMARK    2  A    between atoms: C2_2  and  C3_3
REMARK    3  A    between atoms: C3_3  and  C4_4
REMARK    4  A    between atoms: C3_3  and  C19_23
REMARK    5  A    between atoms: C4_4  and  C5_5
REMARK    6  A    between atoms: C5_5  and  C6_7
REMARK    7  A    between atoms: C7_8  and  C8_9
REMARK    8  A    between atoms: C11_12  and  C12_13
REMARK    9  A    between atoms: C14_16  and  C15_17
REMARK   10  A    between atoms: C17_19  and  C18_20
REMARK   11  A    between atoms: N2_21  and  O2_22
REMARK   12  A    between atoms: C19_23  and  C20_24
REMARK   13  A    between atoms: C19_23  and  C21_25
REMARK                            x       y       z     vdW  Elec       q    Type
REMARK                         _______ _______ _______ _____ _____    ______ ____
ROOT
ATOM      1  C6  UNL     1       2.151  -2.342  17.803  0.00  0.00    +0.000 C 
ATOM      2  C7  UNL     1       3.055  -3.536  17.443  0.00  0.00    +0.000 C 
ATOM      3  C8  UNL     1       3.037  -4.722  18.392  0.00  0.00    +0.000 C 
ATOM      4  C9  UNL     1       2.651  -3.905  16.016  0.00  0.00    +0.000 C 
ATOM      5  C10 UNL     1       2.060  -2.627  15.411  0.00  0.00    +0.000 C 
ATOM      6  C11 UNL     1       2.213  -1.516  16.478  0.00  0.00    +0.000 C 
ENDROOT
BRANCH   6   7
ATOM      7  C12 UNL     1       1.331  -0.286  16.346  0.00  0.00    +0.000 C 
ATOM      8  C13 UNL     1       0.121  -0.353  15.661  0.00  0.00    +0.000 C 
ATOM      9  N1  UNL     1      -0.710   0.689  15.411  0.00  0.00    +0.000 NA
ATOM     10  C14 UNL     1      -0.365   1.896  15.896  0.00  0.00    +0.000 C 
ATOM     11  C15 UNL     1      -1.278   3.050  15.611  0.00  0.00    +0.000 C 
ATOM     12  C16 UNL     1       0.762   2.070  16.678  0.00  0.00    +0.000 C 
ATOM     13  C17 UNL     1       1.583   0.963  16.934  0.00  0.00    +0.000 C 
BRANCH  13  14
ATOM     14  C18 UNL     1       2.626   1.218  17.942  0.00  0.00    +0.000 C 
ATOM     15  N2  UNL     1       2.608   2.275  18.691  0.00  0.00    +0.000 NA
BRANCH  15  16
ATOM     16  O2  UNL     1       3.746   2.267  19.506  0.00  0.00    +0.000 OA
ATOM     17  H   UNL     1       4.114   1.454  19.790  0.00  0.00    +0.000 HD
ENDBRANCH  15  16
ENDBRANCH  13  14
ENDBRANCH   6   7
BRANCH   1  18
ATOM     18  C5  UNL     1       0.726  -2.789  18.201  0.00  0.00    +0.000 C 
ATOM     19  O1  UNL     1      -0.023  -3.341  17.395  0.00  0.00    +0.000 OA
BRANCH  18  20
ATOM     20  C4  UNL     1       0.251  -2.471  19.620  0.00  0.00    +0.000 C 
BRANCH  20  21
ATOM     21  C3  UNL     1       0.749  -1.140  20.239  0.00  0.00    +0.000 C 
BRANCH  21  22
ATOM     22  C19 UNL     1      -0.389  -0.223  20.789  0.00  0.00    +0.000 C 
ATOM     23  C20 UNL     1      -0.594   1.042  19.950  0.00  0.00    +0.000 C 
ATOM     24  C21 UNL     1      -1.733  -0.960  20.885  0.00  0.00    +0.000 C 
ENDBRANCH  21  22
BRANCH  21  26
ATOM     25  C1  UNL     1       2.264  -0.207  22.095  0.00  0.00    +0.000 C 
ATOM     26  C2  UNL     1       1.854  -1.434  21.285  0.00  0.00    +0.000 C 
ENDBRANCH  21  26
ENDBRANCH  20  21
ENDBRANCH  18  20
ENDBRANCH   1  18
TORSDOF 8
ENDMDL
MODEL 9
REMARK VINA RESULT:    -6.386      3.719      6.641
REMARK INTER + INTRA:         -10.106
REMARK INTER:                  -8.261
REMARK INTRA:                  -1.845
REMARK UNBOUND:                -0.919
REMARK  Name = laboratorio_evolutivo\Gen5_Mutante_6.pdb
REMARK  13 active torsions:
REMARK  status: ('A' for Active; 'I' for Inactive)
REMARK    1  A    between atoms: C1_1  and  C2_2
REMARK    2  A    between atoms: C2_2  and  C3_3
REMARK    3  A    between atoms: C3_3  and  C4_4
REMARK    4  A    between atoms: C3_3  and  C19_23
REMARK    5  A    between atoms: C4_4  and  C5_5
REMARK    6  A    between atoms: C5_5  and  C6_7
REMARK    7  A    between atoms: C7_8  and  C8_9
REMARK    8  A    between atoms: C11_12  and  C12_13
REMARK    9  A    between atoms: C14_16  and  C15_17
REMARK   10  A    between atoms: C17_19  and  C18_20
REMARK   11  A    between atoms: N2_21  and  O2_22
REMARK   12  A    between atoms: C19_23  and  C20_24
REMARK   13  A    between atoms: C19_23  and  C21_25
REMARK                            x       y       z     vdW  Elec       q    Type
REMARK                         _______ _______ _______ _____ _____    ______ ____
ROOT
ATOM      1  C6  UNL     1      -2.588   0.245  20.023  0.00  0.00    +0.000 C 
ATOM      2  C7  UNL     1      -4.030   0.361  20.554  0.00  0.00    +0.000 C 
ATOM      3  C8  UNL     1      -4.854   1.536  20.056  0.00  0.00    +0.000 C 
ATOM      4  C9  UNL     1      -4.664  -0.993  20.238  0.00  0.00    +0.000 C 
ATOM      5  C10 UNL     1      -3.498  -1.983  20.146  0.00  0.00    +0.000 C 
ATOM      6  C11 UNL     1      -2.214  -1.195  20.499  0.00  0.00    +0.000 C 
ENDROOT
BRANCH   6   7
ATOM      7  C12 UNL     1      -0.884  -1.783  20.060  0.00  0.00    +0.000 C 
ATOM      8  C13 UNL     1      -0.813  -2.630  18.957  0.00  0.00    +0.000 C 
ATOM      9  N1  UNL     1       0.296  -3.274  18.519  0.00  0.00    +0.000 NA
ATOM     10  C14 UNL     1       1.450  -3.054  19.177  0.00  0.00    +0.000 C 
ATOM     11  C15 UNL     1       2.674  -3.774  18.699  0.00  0.00    +0.000 C 
ATOM     12  C16 UNL     1       1.528  -2.156  20.226  0.00  0.00    +0.000 C 
ATOM     13  C17 UNL     1       0.364  -1.491  20.633  0.00  0.00    +0.000 C 
BRANCH  13  14
ATOM     14  C18 UNL     1       0.605  -0.413  21.607  0.00  0.00    +0.000 C 
ATOM     15  N2  UNL     1       1.557  -0.486  22.483  0.00  0.00    +0.000 NA
BRANCH  15  16
ATOM     16  O2  UNL     1       1.506   0.653  23.297  0.00  0.00    +0.000 OA
ATOM     17  H   UNL     1       2.042   0.705  24.063  0.00  0.00    +0.000 HD
ENDBRANCH  15  16
ENDBRANCH  13  14
ENDBRANCH   6   7
BRANCH   1  18
ATOM     18  C5  UNL     1      -2.515   0.442  18.492  0.00  0.00    +0.000 C 
ATOM     19  O1  UNL     1      -3.165  -0.264  17.721  0.00  0.00    +0.000 OA
BRANCH  18  20
ATOM     20  C4  UNL     1      -1.559   1.511  17.956  0.00  0.00    +0.000 C 
BRANCH  20  21
ATOM     21  C3  UNL     1      -0.342   1.865  18.848  0.00  0.00    +0.000 C 
BRANCH  21  22
ATOM     22  C19 UNL     1       1.043   1.606  18.174  0.00  0.00    +0.000 C 
ATOM     23  C20 UNL     1       1.093   0.286  17.400  0.00  0.00    +0.000 C 
ATOM     24  C21 UNL     1       1.445   2.739  17.219  0.00  0.00    +0.000 C 
ENDBRANCH  21  22
BRANCH  21  26
ATOM     25  C1  UNL     1      -1.690   4.053  18.798  0.00  0.00    +0.000 C 
ATOM     26  C2  UNL     1      -0.496   3.309  19.388  0.00  0.00    +0.000 C 
ENDBRANCH  21  26
ENDBRANCH  20  21
ENDBRANCH  18  20
ENDBRANCH   1  18
TORSDOF 8
ENDMDL
