REMARK  Name = laboratorio_evolutivo\Gen5_Mutante_4.pdb
REMARK  13 active torsions:
REMARK  status: ('A' for Active; 'I' for Inactive)
REMARK    1  A    between atoms: C1_1  and  C2_2
REMARK    2  A    between atoms: C2_2  and  C3_3
REMARK    3  A    between atoms: C5_5  and  C6_6
REMARK    4  A    between atoms: N1_7  and  O1_8
REMARK    5  A    between atoms: C7_9  and  C8_10
REMARK    6  A    between atoms: C11_13  and  C12_14
REMARK    7  A    between atoms: C13_15  and  C14_16
REMARK    8  A    between atoms: C14_16  and  C15_18
REMARK    9  A    between atoms: C15_18  and  C16_19
REMARK   10  A    between atoms: C16_19  and  C17_20
REMARK   11  A    between atoms: C16_19  and  C19_22
REMARK   12  A    between atoms: C17_20  and  C18_21
REMARK   13  A    between atoms: C19_22  and  C20_23
REMARK                            x       y       z     vdW  Elec       q    Type
REMARK                         _______ _______ _______ _____ _____    ______ ____
ROOT
ATOM      1  C8  UNL     1      -0.760  -2.338   0.046  0.00  0.00    +0.000 C 
ATOM      2  C9  UNL     1      -0.092  -3.375  -0.884  0.00  0.00    +0.000 C 
ATOM      3  C10 UNL     1       1.076  -3.970  -0.091  0.00  0.00    +0.000 C 
ATOM      4  C11 UNL     1       1.110  -3.224   1.247  0.00  0.00    +0.000 C 
ATOM      5  C12 UNL     1       2.503  -3.105   1.845  0.00  0.00    +0.000 C 
ATOM      6  C13 UNL     1       0.382  -1.898   0.985  0.00  0.00    +0.000 C 
ENDROOT
BRANCH   1  10
ATOM      7  C3  UNL     1      -2.908   0.853  -1.884  0.00  0.00    +0.000 C 
ATOM      8  C4  UNL     1      -3.372   0.405  -0.658  0.00  0.00    +0.000 C 
ATOM      9  C5  UNL     1      -2.682  -0.623  -0.001  0.00  0.00    +0.000 C 
ATOM     10  C7  UNL     1      -1.548  -1.213  -0.588  0.00  0.00    +0.000 C 
ATOM     11  C21 UNL     1      -1.166  -0.670  -1.815  0.00  0.00    +0.000 C 
ATOM     12  N2  UNL     1      -1.808   0.333  -2.460  0.00  0.00    +0.000 NA
BRANCH   7  14
ATOM     13  C1  UNL     1      -3.046   3.336  -2.158  0.00  0.00    +0.000 C 
ATOM     14  C2  UNL     1      -3.590   1.987  -2.602  0.00  0.00    +0.000 C 
ENDBRANCH   7  14
BRANCH   9  15
ATOM     15  C6  UNL     1      -3.243  -0.982   1.322  0.00  0.00    +0.000 C 
ATOM     16  N1  UNL     1      -2.561  -1.548   2.265  0.00  0.00    +0.000 NA
BRANCH  16  17
ATOM     17  O1  UNL     1      -3.386  -1.711   3.383  0.00  0.00    +0.000 OA
ATOM     18  H   UNL     1      -3.047  -2.108   4.161  0.00  0.00    +0.000 HD
ENDBRANCH  16  17
ENDBRANCH   9  15
ENDBRANCH   1  10
BRANCH   6  19
ATOM     19  C14 UNL     1       1.256  -0.812   0.351  0.00  0.00    +0.000 C 
ATOM     20  O2  UNL     1       1.973  -1.049  -0.621  0.00  0.00    +0.000 OA
BRANCH  19  21
ATOM     21  C15 UNL     1       1.159   0.573   0.983  0.00  0.00    +0.000 C 
BRANCH  21  22
ATOM     22  C16 UNL     1       1.743   1.706   0.111  0.00  0.00    +0.000 C 
BRANCH  22  23
ATOM     23  C17 UNL     1       3.189   2.064   0.521  0.00  0.00    +0.000 C 
ATOM     24  C18 UNL     1       4.177   0.909   0.432  0.00  0.00    +0.000 C 
ENDBRANCH  22  23
BRANCH  22  25
ATOM     25  C19 UNL     1       0.818   2.942   0.212  0.00  0.00    +0.000 C 
ATOM     26  C20 UNL     1       1.185   4.072  -0.738  0.00  0.00    +0.000 C 
ENDBRANCH  22  25
ENDBRANCH  21  22
ENDBRANCH  19  21
ENDBRANCH   6  19
TORSDOF 9
