REMARK  Name = laboratorio_evolutivo\Gen5_Mutante_6.pdb
REMARK  13 active torsions:
REMARK  status: ('A' for Active; 'I' for Inactive)
REMARK    1  A    between atoms: C1_1  and  C2_2
REMARK    2  A    between atoms: C2_2  and  C3_3
REMARK    3  A    between atoms: C3_3  and  C4_4
REMARK    4  A    between atoms: C3_3  and  C19_23
REMARK    5  A    between atoms: C4_4  and  C5_5
REMARK    6  A    between atoms: C5_5  and  C6_7
REMARK    7  A    between atoms: C7_8  and  C8_9
REMARK    8  A    between atoms: C11_12  and  C12_13
REMARK    9  A    between atoms: C14_16  and  C15_17
REMARK   10  A    between atoms: C17_19  and  C18_20
REMARK   11  A    between atoms: N2_21  and  O2_22
REMARK   12  A    between atoms: C19_23  and  C20_24
REMARK   13  A    between atoms: C19_23  and  C21_25
REMARK                            x       y       z     vdW  Elec       q    Type
REMARK                         _______ _______ _______ _____ _____    ______ ____
ROOT
ATOM      1  C6  UNL     1      -0.539  -0.758  -1.251  0.00  0.00    +0.000 C 
ATOM      2  C7  UNL     1      -0.439  -2.231  -1.693  0.00  0.00    +0.000 C 
ATOM      3  C8  UNL     1       0.953  -2.771  -1.974  0.00  0.00    +0.000 C 
ATOM      4  C9  UNL     1      -1.174  -3.008  -0.602  0.00  0.00    +0.000 C 
ATOM      5  C10 UNL     1      -2.154  -2.011   0.026  0.00  0.00    +0.000 C 
ATOM      6  C11 UNL     1      -2.026  -0.694  -0.776  0.00  0.00    +0.000 C 
ENDROOT
BRANCH   6   7
ATOM      7  C12 UNL     1      -2.525   0.582  -0.120  0.00  0.00    +0.000 C 
ATOM      8  C13 UNL     1      -1.891   1.798  -0.363  0.00  0.00    +0.000 C 
ATOM      9  N1  UNL     1      -2.193   2.983   0.221  0.00  0.00    +0.000 NA
ATOM     10  C14 UNL     1      -3.223   3.010   1.088  0.00  0.00    +0.000 C 
ATOM     11  C15 UNL     1      -3.551   4.318   1.741  0.00  0.00    +0.000 C 
ATOM     12  C16 UNL     1      -3.994   1.889   1.335  0.00  0.00    +0.000 C 
ATOM     13  C17 UNL     1      -3.664   0.688   0.693  0.00  0.00    +0.000 C 
BRANCH  13  14
ATOM     14  C18 UNL     1      -4.670  -0.373   0.865  0.00  0.00    +0.000 C 
ATOM     15  N2  UNL     1      -5.116  -1.060  -0.139  0.00  0.00    +0.000 NA
BRANCH  15  16
ATOM     16  O2  UNL     1      -6.092  -1.951   0.324  0.00  0.00    +0.000 OA
ATOM     17  H   UNL     1      -6.522  -2.528  -0.276  0.00  0.00    +0.000 HD
ENDBRANCH  15  16
ENDBRANCH  13  14
ENDBRANCH   6   7
BRANCH   1  18
ATOM     18  C5  UNL     1       0.490  -0.409  -0.152  0.00  0.00    +0.000 C 
ATOM     19  O1  UNL     1       0.574  -1.070   0.883  0.00  0.00    +0.000 OA
BRANCH  18  20
ATOM     20  C4  UNL     1       1.368   0.826  -0.365  0.00  0.00    +0.000 C 
BRANCH  20  21
ATOM     21  C3  UNL     1       2.895   0.634  -0.182  0.00  0.00    +0.000 C 
BRANCH  21  22
ATOM     22  C19 UNL     1       3.315   0.156   1.244  0.00  0.00    +0.000 C 
ATOM     23  C20 UNL     1       4.834   0.075   1.423  0.00  0.00    +0.000 C 
ATOM     24  C21 UNL     1       2.748   1.059   2.349  0.00  0.00    +0.000 C 
ENDBRANCH  21  22
BRANCH  21  26
ATOM     25  C1  UNL     1       4.745   0.246  -1.924  0.00  0.00    +0.000 C 
ATOM     26  C2  UNL     1       3.445  -0.270  -1.314  0.00  0.00    +0.000 C 
ENDBRANCH  21  26
ENDBRANCH  20  21
ENDBRANCH  18  20
ENDBRANCH   1  18
TORSDOF 8
