REMARK  Name = laboratorio_evolutivo\Gen5_Mutante_5.pdb
REMARK  13 active torsions:
REMARK  status: ('A' for Active; 'I' for Inactive)
REMARK    1  A    between atoms: C1_1  and  C2_2
REMARK    2  A    between atoms: C2_2  and  C3_3
REMARK    3  A    between atoms: C3_3  and  C4_4
REMARK    4  A    between atoms: C3_3  and  C6_6
REMARK    5  A    between atoms: C4_4  and  C5_5
REMARK    6  A    between atoms: C6_6  and  C7_7
REMARK    7  A    between atoms: C6_6  and  C8_8
REMARK    8  A    between atoms: C8_8  and  C9_10
REMARK    9  A    between atoms: C10_11  and  C11_12
REMARK   10  A    between atoms: C14_15  and  C15_16
REMARK   11  A    between atoms: C17_19  and  C18_20
REMARK   12  A    between atoms: C20_22  and  C21_23
REMARK   13  A    between atoms: N2_24  and  O2_25
REMARK                            x       y       z     vdW  Elec       q    Type
REMARK                         _______ _______ _______ _____ _____    ______ ____
ROOT
ATOM      1  C9  UNL     1      -0.122   0.535  -1.527  0.00  0.00    +0.000 C 
ATOM      2  C10 UNL     1      -0.395   0.420  -3.041  0.00  0.00    +0.000 C 
ATOM      3  C11 UNL     1      -1.526  -0.487  -3.481  0.00  0.00    +0.000 C 
ATOM      4  C12 UNL     1       0.954   0.012  -3.630  0.00  0.00    +0.000 C 
ATOM      5  C13 UNL     1       1.933   0.890  -2.863  0.00  0.00    +0.000 C 
ATOM      6  C14 UNL     1       1.361   0.994  -1.424  0.00  0.00    +0.000 C 
ENDROOT
BRANCH   6   7
ATOM      7  C15 UNL     1       2.228   0.326  -0.377  0.00  0.00    +0.000 C 
ATOM      8  C16 UNL     1       2.764  -0.940  -0.578  0.00  0.00    +0.000 C 
ATOM      9  N1  UNL     1       3.556  -1.596   0.301  0.00  0.00    +0.000 NA
ATOM     10  C17 UNL     1       3.840  -0.990   1.468  0.00  0.00    +0.000 C 
ATOM     11  C18 UNL     1       4.757  -1.710   2.408  0.00  0.00    +0.000 C 
ATOM     12  C19 UNL     1       3.348   0.262   1.785  0.00  0.00    +0.000 C 
ATOM     13  C20 UNL     1       2.546   0.915   0.850  0.00  0.00    +0.000 C 
BRANCH  13  14
ATOM     14  C21 UNL     1       2.017   2.226   1.256  0.00  0.00    +0.000 C 
ATOM     15  N2  UNL     1       2.383   3.393   0.820  0.00  0.00    +0.000 NA
BRANCH  15  16
ATOM     16  O2  UNL     1       3.409   3.280  -0.132  0.00  0.00    +0.000 OA
ATOM     17  H   UNL     1       3.767   4.050  -0.529  0.00  0.00    +0.000 HD
ENDBRANCH  15  16
ENDBRANCH  13  14
ENDBRANCH   6   7
BRANCH   1  18
ATOM     18  C8  UNL     1      -0.446  -0.723  -0.717  0.00  0.00    +0.000 C 
ATOM     19  O1  UNL     1      -0.237  -1.854  -1.155  0.00  0.00    +0.000 OA
BRANCH  18  20
ATOM     20  C6  UNL     1      -1.021  -0.498   0.686  0.00  0.00    +0.000 C 
ATOM     21  C7  UNL     1      -0.697  -1.696   1.591  0.00  0.00    +0.000 C 
BRANCH  20  22
ATOM     22  C3  UNL     1      -2.527  -0.132   0.580  0.00  0.00    +0.000 C 
BRANCH  22  24
ATOM     23  C1  UNL     1      -4.931  -1.001   0.438  0.00  0.00    +0.000 C 
ATOM     24  C2  UNL     1      -3.480  -1.336   0.757  0.00  0.00    +0.000 C 
ENDBRANCH  22  24
BRANCH  22  25
ATOM     25  C4  UNL     1      -2.870   1.070   1.490  0.00  0.00    +0.000 C 
ATOM     26  C5  UNL     1      -2.703   0.833   2.987  0.00  0.00    +0.000 C 
ENDBRANCH  22  25
ENDBRANCH  20  22
ENDBRANCH  18  20
ENDBRANCH   1  18
TORSDOF 8
