MODEL 1
REMARK VINA RESULT:    -6.507      0.000      0.000
REMARK INTER + INTRA:          -9.787
REMARK INTER:                  -8.410
REMARK INTRA:                  -1.377
REMARK UNBOUND:                -1.377
REMARK  Name = laboratorio_evolutivo\Gen6_Mutante_2.pdb
REMARK  10 active torsions:
REMARK  status: ('A' for Active; 'I' for Inactive)
REMARK    1  A    between atoms: C1_1  and  C2_2
REMARK    2  A    between atoms: C2_2  and  C3_4
REMARK    3  A    between atoms: C5_6  and  C6_7
REMARK    4  A    between atoms: C8_10  and  C9_11
REMARK    5  A    between atoms: C12_14  and  C13_15
REMARK    6  A    between atoms: C14_16  and  C15_17
REMARK    7  A    between atoms: C15_17  and  C16_19
REMARK    8  A    between atoms: C16_19  and  C17_20
REMARK    9  A    between atoms: C17_20  and  C18_21
REMARK   10  A    between atoms: C17_20  and  C19_22
REMARK                            x       y       z     vdW  Elec       q    Type
REMARK                         _______ _______ _______ _____ _____    ______ ____
ROOT
ATOM      1  C9  UNL     1      -6.778 -14.604  21.538  0.00  0.00    +0.000 C 
ATOM      2  C10 UNL     1      -6.944 -15.939  22.293  0.00  0.00    +0.000 C 
ATOM      3  C11 UNL     1      -8.408 -15.947  22.719  0.00  0.00    +0.000 C 
ATOM      4  C12 UNL     1      -8.631 -14.505  23.167  0.00  0.00    +0.000 C 
ATOM      5  C13 UNL     1     -10.092 -14.143  23.377  0.00  0.00    +0.000 C 
ATOM      6  C14 UNL     1      -7.829 -13.650  22.163  0.00  0.00    +0.000 C 
ENDROOT
BRANCH   1  13
ATOM      7  C3  UNL     1      -4.857 -13.327  20.402  0.00  0.00    +0.000 C 
ATOM      8  C4  UNL     1      -3.593 -12.729  20.450  0.00  0.00    +0.000 C 
ATOM      9  C5  UNL     1      -2.880 -12.778  21.636  0.00  0.00    +0.000 C 
ATOM     10  C6  UNL     1      -1.518 -12.157  21.732  0.00  0.00    +0.000 C 
ATOM     11  N1  UNL     1      -3.370 -13.374  22.741  0.00  0.00    +0.000 NA
ATOM     12  C7  UNL     1      -4.594 -13.950  22.663  0.00  0.00    +0.000 C 
ATOM     13  C8  UNL     1      -5.391 -13.987  21.523  0.00  0.00    +0.000 C 
BRANCH   7  15
ATOM     14  C1  UNL     1      -6.116 -11.879  18.710  0.00  0.00    +0.000 C 
ATOM     15  C2  UNL     1      -5.590 -13.231  19.117  0.00  0.00    +0.000 C 
ATOM     16  O1  UNL     1      -5.726 -14.226  18.413  0.00  0.00    +0.000 OA
ENDBRANCH   7  15
ENDBRANCH   1  13
BRANCH   6  17
ATOM     17  C15 UNL     1      -8.645 -12.903  21.103  0.00  0.00    +0.000 C 
ATOM     18  O2  UNL     1      -9.057 -13.526  20.120  0.00  0.00    +0.000 OA
BRANCH  17  19
ATOM     19  C16 UNL     1      -8.974 -11.428  21.305  0.00  0.00    +0.000 C 
BRANCH  19  20
ATOM     20  C17 UNL     1      -9.727 -10.810  20.114  0.00  0.00    +0.000 C 
ATOM     21  C18 UNL     1     -11.118 -10.316  20.522  0.00  0.00    +0.000 C 
ATOM     22  C19 UNL     1      -8.924  -9.643  19.531  0.00  0.00    +0.000 C 
ENDBRANCH  19  20
ENDBRANCH  17  19
ENDBRANCH   6  17
TORSDOF 5
ENDMDL
MODEL 2
REMARK VINA RESULT:    -6.278     28.977     31.638
REMARK INTER + INTRA:          -9.491
REMARK INTER:                  -7.878
REMARK INTRA:                  -1.613
REMARK UNBOUND:                -1.377
REMARK  Name = laboratorio_evolutivo\Gen6_Mutante_2.pdb
REMARK  10 active torsions:
REMARK  status: ('A' for Active; 'I' for Inactive)
REMARK    1  A    between atoms: C1_1  and  C2_2
REMARK    2  A    between atoms: C2_2  and  C3_4
REMARK    3  A    between atoms: C5_6  and  C6_7
REMARK    4  A    between atoms: C8_10  and  C9_11
REMARK    5  A    between atoms: C12_14  and  C13_15
REMARK    6  A    between atoms: C14_16  and  C15_17
REMARK    7  A    between atoms: C15_17  and  C16_19
REMARK    8  A    between atoms: C16_19  and  C17_20
REMARK    9  A    between atoms: C17_20  and  C18_21
REMARK   10  A    between atoms: C17_20  and  C19_22
REMARK                            x       y       z     vdW  Elec       q    Type
REMARK                         _______ _______ _______ _____ _____    ______ ____
ROOT
ATOM      1  C9  UNL     1      16.762  -6.732   1.435  0.00  0.00    +0.000 C 
ATOM      2  C10 UNL     1      16.051  -7.564   0.348  0.00  0.00    +0.000 C 
ATOM      3  C11 UNL     1      14.666  -6.935   0.243  0.00  0.00    +0.000 C 
ATOM      4  C12 UNL     1      14.308  -6.676   1.704  0.00  0.00    +0.000 C 
ATOM      5  C13 UNL     1      13.091  -5.785   1.892  0.00  0.00    +0.000 C 
ATOM      6  C14 UNL     1      15.628  -6.217   2.359  0.00  0.00    +0.000 C 
ENDROOT
BRANCH   1  13
ATOM      7  C3  UNL     1      19.191  -6.953   2.250  0.00  0.00    +0.000 C 
ATOM      8  C4  UNL     1      20.163  -7.591   3.028  0.00  0.00    +0.000 C 
ATOM      9  C5  UNL     1      19.791  -8.683   3.792  0.00  0.00    +0.000 C 
ATOM     10  C6  UNL     1      20.802  -9.402   4.635  0.00  0.00    +0.000 C 
ATOM     11  N1  UNL     1      18.524  -9.142   3.814  0.00  0.00    +0.000 NA
ATOM     12  C7  UNL     1      17.605  -8.509   3.046  0.00  0.00    +0.000 C 
ATOM     13  C8  UNL     1      17.864  -7.420   2.220  0.00  0.00    +0.000 C 
BRANCH   7  15
ATOM     14  C1  UNL     1      20.235  -4.618   2.218  0.00  0.00    +0.000 C 
ATOM     15  C2  UNL     1      19.633  -5.776   1.465  0.00  0.00    +0.000 C 
ATOM     16  O1  UNL     1      19.527  -5.779   0.243  0.00  0.00    +0.000 OA
ENDBRANCH   7  15
ENDBRANCH   1  13
BRANCH   6  17
ATOM     17  C15 UNL     1      15.752  -4.721   2.661  0.00  0.00    +0.000 C 
ATOM     18  O2  UNL     1      15.200  -4.269   3.669  0.00  0.00    +0.000 OA
BRANCH  17  19
ATOM     19  C16 UNL     1      16.591  -3.833   1.749  0.00  0.00    +0.000 C 
BRANCH  19  20
ATOM     20  C17 UNL     1      15.856  -3.430   0.459  0.00  0.00    +0.000 C 
ATOM     21  C18 UNL     1      15.379  -1.976   0.513  0.00  0.00    +0.000 C 
ATOM     22  C19 UNL     1      16.773  -3.619  -0.753  0.00  0.00    +0.000 C 
ENDBRANCH  19  20
ENDBRANCH  17  19
ENDBRANCH   6  17
TORSDOF 5
ENDMDL
MODEL 3
REMARK VINA RESULT:    -6.202     12.695     15.675
REMARK INTER + INTRA:          -9.392
REMARK INTER:                  -7.681
REMARK INTRA:                  -1.711
REMARK UNBOUND:                -1.377
REMARK  Name = laboratorio_evolutivo\Gen6_Mutante_2.pdb
REMARK  10 active torsions:
REMARK  status: ('A' for Active; 'I' for Inactive)
REMARK    1  A    between atoms: C1_1  and  C2_2
REMARK    2  A    between atoms: C2_2  and  C3_4
REMARK    3  A    between atoms: C5_6  and  C6_7
REMARK    4  A    between atoms: C8_10  and  C9_11
REMARK    5  A    between atoms: C12_14  and  C13_15
REMARK    6  A    between atoms: C14_16  and  C15_17
REMARK    7  A    between atoms: C15_17  and  C16_19
REMARK    8  A    between atoms: C16_19  and  C17_20
REMARK    9  A    between atoms: C17_20  and  C18_21
REMARK   10  A    between atoms: C17_20  and  C19_22
REMARK                            x       y       z     vdW  Elec       q    Type
REMARK                         _______ _______ _______ _____ _____    ______ ____
ROOT
ATOM      1  C9  UNL     1       0.996  -0.829  18.628  0.00  0.00    +0.000 C 
ATOM      2  C10 UNL     1      -0.467  -0.490  18.273  0.00  0.00    +0.000 C 
ATOM      3  C11 UNL     1      -0.673  -1.119  16.900  0.00  0.00    +0.000 C 
ATOM      4  C12 UNL     1       0.636  -0.792  16.185  0.00  0.00    +0.000 C 
ATOM      5  C13 UNL     1       0.832  -1.549  14.882  0.00  0.00    +0.000 C 
ATOM      6  C14 UNL     1       1.726  -0.952  17.265  0.00  0.00    +0.000 C 
ENDROOT
BRANCH   1  13
ATOM      7  C3  UNL     1       1.914  -0.167  20.936  0.00  0.00    +0.000 C 
ATOM      8  C4  UNL     1       2.627   0.713  21.759  0.00  0.00    +0.000 C 
ATOM      9  C5  UNL     1       3.157   1.863  21.201  0.00  0.00    +0.000 C 
ATOM     10  C6  UNL     1       3.921   2.837  22.046  0.00  0.00    +0.000 C 
ATOM     11  N1  UNL     1       3.013   2.155  19.893  0.00  0.00    +0.000 NA
ATOM     12  C7  UNL     1       2.313   1.289  19.121  0.00  0.00    +0.000 C 
ATOM     13  C8  UNL     1       1.714   0.116  19.573  0.00  0.00    +0.000 C 
BRANCH   7  15
ATOM     14  C1  UNL     1       2.377  -2.434  22.026  0.00  0.00    +0.000 C 
ATOM     15  C2  UNL     1       1.384  -1.395  21.575  0.00  0.00    +0.000 C 
ATOM     16  O1  UNL     1       0.176  -1.524  21.745  0.00  0.00    +0.000 OA
ENDBRANCH   7  15
ENDBRANCH   1  13
BRANCH   6  17
ATOM     17  C15 UNL     1       2.592  -2.213  17.176  0.00  0.00    +0.000 C 
ATOM     18  O2  UNL     1       3.575  -2.209  16.429  0.00  0.00    +0.000 OA
BRANCH  17  19
ATOM     19  C16 UNL     1       2.256  -3.422  18.041  0.00  0.00    +0.000 C 
BRANCH  19  20
ATOM     20  C17 UNL     1       1.161  -4.315  17.431  0.00  0.00    +0.000 C 
ATOM     21  C18 UNL     1       1.697  -5.708  17.089  0.00  0.00    +0.000 C 
ATOM     22  C19 UNL     1      -0.014  -4.449  18.404  0.00  0.00    +0.000 C 
ENDBRANCH  19  20
ENDBRANCH  17  19
ENDBRANCH   6  17
TORSDOF 5
ENDMDL
MODEL 4
REMARK VINA RESULT:    -6.163     13.230     15.947
REMARK INTER + INTRA:          -9.342
REMARK INTER:                  -7.584
REMARK INTRA:                  -1.758
REMARK UNBOUND:                -1.377
REMARK  Name = laboratorio_evolutivo\Gen6_Mutante_2.pdb
REMARK  10 active torsions:
REMARK  status: ('A' for Active; 'I' for Inactive)
REMARK    1  A    between atoms: C1_1  and  C2_2
REMARK    2  A    between atoms: C2_2  and  C3_4
REMARK    3  A    between atoms: C5_6  and  C6_7
REMARK    4  A    between atoms: C8_10  and  C9_11
REMARK    5  A    between atoms: C12_14  and  C13_15
REMARK    6  A    between atoms: C14_16  and  C15_17
REMARK    7  A    between atoms: C15_17  and  C16_19
REMARK    8  A    between atoms: C16_19  and  C17_20
REMARK    9  A    between atoms: C17_20  and  C18_21
REMARK   10  A    between atoms: C17_20  and  C19_22
REMARK                            x       y       z     vdW  Elec       q    Type
REMARK                         _______ _______ _______ _____ _____    ______ ____
ROOT
ATOM      1  C9  UNL     1       1.221   0.021  21.118  0.00  0.00    +0.000 C 
ATOM      2  C10 UNL     1       1.755  -0.242  22.542  0.00  0.00    +0.000 C 
ATOM      3  C11 UNL     1       2.632   0.968  22.841  0.00  0.00    +0.000 C 
ATOM      4  C12 UNL     1       3.363   1.183  21.519  0.00  0.00    +0.000 C 
ATOM      5  C13 UNL     1       4.101   2.509  21.431  0.00  0.00    +0.000 C 
ATOM      6  C14 UNL     1       2.308   0.888  20.432  0.00  0.00    +0.000 C 
ENDROOT
BRANCH   1  13
ATOM      7  C3  UNL     1      -0.441  -1.412  19.778  0.00  0.00    +0.000 C 
ATOM      8  C4  UNL     1      -0.722  -2.520  18.971  0.00  0.00    +0.000 C 
ATOM      9  C5  UNL     1       0.307  -3.391  18.657  0.00  0.00    +0.000 C 
ATOM     10  C6  UNL     1       0.049  -4.595  17.801  0.00  0.00    +0.000 C 
ATOM     11  N1  UNL     1       1.566  -3.199  19.097  0.00  0.00    +0.000 NA
ATOM     12  C7  UNL     1       1.808  -2.122  19.881  0.00  0.00    +0.000 C 
ATOM     13  C8  UNL     1       0.853  -1.193  20.284  0.00  0.00    +0.000 C 
BRANCH   7  15
ATOM     14  C1  UNL     1      -1.780   0.674  19.146  0.00  0.00    +0.000 C 
ATOM     15  C2  UNL     1      -1.570  -0.497  20.071  0.00  0.00    +0.000 C 
ATOM     16  O1  UNL     1      -2.310  -0.722  21.022  0.00  0.00    +0.000 OA
ENDBRANCH   7  15
ENDBRANCH   1  13
BRANCH   6  17
ATOM     17  C15 UNL     1       1.719   2.103  19.709  0.00  0.00    +0.000 C 
ATOM     18  O2  UNL     1       1.029   2.901  20.352  0.00  0.00    +0.000 OA
BRANCH  17  19
ATOM     19  C16 UNL     1       2.034   2.332  18.235  0.00  0.00    +0.000 C 
BRANCH  19  20
ATOM     20  C17 UNL     1       1.082   1.576  17.292  0.00  0.00    +0.000 C 
ATOM     21  C18 UNL     1       0.739   2.410  16.053  0.00  0.00    +0.000 C 
ATOM     22  C19 UNL     1       1.714   0.252  16.853  0.00  0.00    +0.000 C 
ENDBRANCH  19  20
ENDBRANCH  17  19
ENDBRANCH   6  17
TORSDOF 5
ENDMDL
MODEL 5
REMARK VINA RESULT:    -5.948     29.754     32.508
REMARK INTER + INTRA:          -9.063
REMARK INTER:                  -7.375
REMARK INTRA:                  -1.689
REMARK UNBOUND:                -1.377
REMARK  Name = laboratorio_evolutivo\Gen6_Mutante_2.pdb
REMARK  10 active torsions:
REMARK  status: ('A' for Active; 'I' for Inactive)
REMARK    1  A    between atoms: C1_1  and  C2_2
REMARK    2  A    between atoms: C2_2  and  C3_4
REMARK    3  A    between atoms: C5_6  and  C6_7
REMARK    4  A    between atoms: C8_10  and  C9_11
REMARK    5  A    between atoms: C12_14  and  C13_15
REMARK    6  A    between atoms: C14_16  and  C15_17
REMARK    7  A    between atoms: C15_17  and  C16_19
REMARK    8  A    between atoms: C16_19  and  C17_20
REMARK    9  A    between atoms: C17_20  and  C18_21
REMARK   10  A    between atoms: C17_20  and  C19_22
REMARK                            x       y       z     vdW  Elec       q    Type
REMARK                         _______ _______ _______ _____ _____    ______ ____
ROOT
ATOM      1  C9  UNL     1      15.677  -7.217  -0.254  0.00  0.00    +0.000 C 
ATOM      2  C10 UNL     1      14.287  -7.841  -0.009  0.00  0.00    +0.000 C 
ATOM      3  C11 UNL     1      14.096  -7.744   1.500  0.00  0.00    +0.000 C 
ATOM      4  C12 UNL     1      15.474  -8.123   2.035  0.00  0.00    +0.000 C 
ATOM      5  C13 UNL     1      15.663  -7.834   3.515  0.00  0.00    +0.000 C 
ATOM      6  C14 UNL     1      16.471  -7.470   1.054  0.00  0.00    +0.000 C 
ENDROOT
BRANCH   1  13
ATOM      7  C3  UNL     1      17.215  -6.829  -2.277  0.00  0.00    +0.000 C 
ATOM      8  C4  UNL     1      17.940  -7.317  -3.369  0.00  0.00    +0.000 C 
ATOM      9  C5  UNL     1      17.900  -8.674  -3.641  0.00  0.00    +0.000 C 
ATOM     10  C6  UNL     1      18.656  -9.240  -4.806  0.00  0.00    +0.000 C 
ATOM     11  N1  UNL     1      17.192  -9.534  -2.883  0.00  0.00    +0.000 NA
ATOM     12  C7  UNL     1      16.494  -9.033  -1.835  0.00  0.00    +0.000 C 
ATOM     13  C8  UNL     1      16.438  -7.688  -1.480  0.00  0.00    +0.000 C 
BRANCH   7  15
ATOM     14  C1  UNL     1      18.656  -4.809  -1.654  0.00  0.00    +0.000 C 
ATOM     15  C2  UNL     1      17.306  -5.373  -2.015  0.00  0.00    +0.000 C 
ATOM     16  O1  UNL     1      16.308  -4.667  -2.120  0.00  0.00    +0.000 OA
ENDBRANCH   7  15
ENDBRANCH   1  13
BRANCH   6  17
ATOM     17  C15 UNL     1      17.192  -6.214   1.554  0.00  0.00    +0.000 C 
ATOM     18  O2  UNL     1      18.331  -6.326   2.016  0.00  0.00    +0.000 OA
BRANCH  17  19
ATOM     19  C16 UNL     1      16.516  -4.854   1.425  0.00  0.00    +0.000 C 
BRANCH  19  20
ATOM     20  C17 UNL     1      16.067  -4.274   2.778  0.00  0.00    +0.000 C 
ATOM     21  C18 UNL     1      16.579  -2.844   2.974  0.00  0.00    +0.000 C 
ATOM     22  C19 UNL     1      14.539  -4.284   2.876  0.00  0.00    +0.000 C 
ENDBRANCH  19  20
ENDBRANCH  17  19
ENDBRANCH   6  17
TORSDOF 5
ENDMDL
MODEL 6
REMARK VINA RESULT:    -5.943     13.766     16.382
REMARK INTER + INTRA:          -9.057
REMARK INTER:                  -7.510
REMARK INTRA:                  -1.547
REMARK UNBOUND:                -1.377
REMARK  Name = laboratorio_evolutivo\Gen6_Mutante_2.pdb
REMARK  10 active torsions:
REMARK  status: ('A' for Active; 'I' for Inactive)
REMARK    1  A    between atoms: C1_1  and  C2_2
REMARK    2  A    between atoms: C2_2  and  C3_4
REMARK    3  A    between atoms: C5_6  and  C6_7
REMARK    4  A    between atoms: C8_10  and  C9_11
REMARK    5  A    between atoms: C12_14  and  C13_15
REMARK    6  A    between atoms: C14_16  and  C15_17
REMARK    7  A    between atoms: C15_17  and  C16_19
REMARK    8  A    between atoms: C16_19  and  C17_20
REMARK    9  A    between atoms: C17_20  and  C18_21
REMARK   10  A    between atoms: C17_20  and  C19_22
REMARK                            x       y       z     vdW  Elec       q    Type
REMARK                         _______ _______ _______ _____ _____    ______ ____
ROOT
ATOM      1  C9  UNL     1       1.309   0.134  21.039  0.00  0.00    +0.000 C 
ATOM      2  C10 UNL     1       1.721  -0.082  22.511  0.00  0.00    +0.000 C 
ATOM      3  C11 UNL     1       2.563   1.143  22.846  0.00  0.00    +0.000 C 
ATOM      4  C12 UNL     1       3.404   1.324  21.585  0.00  0.00    +0.000 C 
ATOM      5  C13 UNL     1       4.140   2.652  21.519  0.00  0.00    +0.000 C 
ATOM      6  C14 UNL     1       2.447   0.989  20.422  0.00  0.00    +0.000 C 
ENDROOT
BRANCH   1  13
ATOM      7  C3  UNL     1      -0.074  -1.204  19.335  0.00  0.00    +0.000 C 
ATOM      8  C4  UNL     1      -0.274  -2.349  18.557  0.00  0.00    +0.000 C 
ATOM      9  C5  UNL     1       0.643  -3.383  18.648  0.00  0.00    +0.000 C 
ATOM     10  C6  UNL     1       0.464  -4.632  17.838  0.00  0.00    +0.000 C 
ATOM     11  N1  UNL     1       1.719  -3.315  19.456  0.00  0.00    +0.000 NA
ATOM     12  C7  UNL     1       1.884  -2.197  20.203  0.00  0.00    +0.000 C 
ATOM     13  C8  UNL     1       1.019  -1.106  20.214  0.00  0.00    +0.000 C 
BRANCH   7  15
ATOM     14  C1  UNL     1      -2.139   0.002  20.243  0.00  0.00    +0.000 C 
ATOM     15  C2  UNL     1      -1.070  -0.116  19.187  0.00  0.00    +0.000 C 
ATOM     16  O1  UNL     1      -0.991   0.664  18.245  0.00  0.00    +0.000 OA
ENDBRANCH   7  15
ENDBRANCH   1  13
BRANCH   6  17
ATOM     17  C15 UNL     1       1.915   2.178  19.615  0.00  0.00    +0.000 C 
ATOM     18  O2  UNL     1       2.426   2.430  18.520  0.00  0.00    +0.000 OA
BRANCH  17  19
ATOM     19  C16 UNL     1       0.741   2.989  20.151  0.00  0.00    +0.000 C 
BRANCH  19  20
ATOM     20  C17 UNL     1       0.843   4.488  19.820  0.00  0.00    +0.000 C 
ATOM     21  C18 UNL     1      -0.538   5.146  19.758  0.00  0.00    +0.000 C 
ATOM     22  C19 UNL     1       1.699   5.203  20.870  0.00  0.00    +0.000 C 
ENDBRANCH  19  20
ENDBRANCH  17  19
ENDBRANCH   6  17
TORSDOF 5
ENDMDL
MODEL 7
REMARK VINA RESULT:    -5.846     29.699     32.479
REMARK INTER + INTRA:          -8.932
REMARK INTER:                  -7.331
REMARK INTRA:                  -1.601
REMARK UNBOUND:                -1.377
REMARK  Name = laboratorio_evolutivo\Gen6_Mutante_2.pdb
REMARK  10 active torsions:
REMARK  status: ('A' for Active; 'I' for Inactive)
REMARK    1  A    between atoms: C1_1  and  C2_2
REMARK    2  A    between atoms: C2_2  and  C3_4
REMARK    3  A    between atoms: C5_6  and  C6_7
REMARK    4  A    between atoms: C8_10  and  C9_11
REMARK    5  A    between atoms: C12_14  and  C13_15
REMARK    6  A    between atoms: C14_16  and  C15_17
REMARK    7  A    between atoms: C15_17  and  C16_19
REMARK    8  A    between atoms: C16_19  and  C17_20
REMARK    9  A    between atoms: C17_20  and  C18_21
REMARK   10  A    between atoms: C17_20  and  C19_22
REMARK                            x       y       z     vdW  Elec       q    Type
REMARK                         _______ _______ _______ _____ _____    ______ ____
ROOT
ATOM      1  C9  UNL     1      18.627  -5.862   1.142  0.00  0.00    +0.000 C 
ATOM      2  C10 UNL     1      19.861  -5.689   2.052  0.00  0.00    +0.000 C 
ATOM      3  C11 UNL     1      20.252  -7.113   2.426  0.00  0.00    +0.000 C 
ATOM      4  C12 UNL     1      18.899  -7.772   2.684  0.00  0.00    +0.000 C 
ATOM      5  C13 UNL     1      18.962  -9.286   2.798  0.00  0.00    +0.000 C 
ATOM      6  C14 UNL     1      17.962  -7.183   1.608  0.00  0.00    +0.000 C 
ENDROOT
BRANCH   1  13
ATOM      7  C3  UNL     1      17.059  -4.244  -0.096  0.00  0.00    +0.000 C 
ATOM      8  C4  UNL     1      16.111  -3.215  -0.084  0.00  0.00    +0.000 C 
ATOM      9  C5  UNL     1      15.729  -2.677   1.134  0.00  0.00    +0.000 C 
ATOM     10  C6  UNL     1      14.723  -1.568   1.194  0.00  0.00    +0.000 C 
ATOM     11  N1  UNL     1      16.237  -3.120   2.301  0.00  0.00    +0.000 NA
ATOM     12  C7  UNL     1      17.157  -4.113   2.259  0.00  0.00    +0.000 C 
ATOM     13  C8  UNL     1      17.636  -4.713   1.098  0.00  0.00    +0.000 C 
BRANCH   7  15
ATOM     14  C1  UNL     1      18.714  -4.346  -2.043  0.00  0.00    +0.000 C 
ATOM     15  C2  UNL     1      17.419  -4.801  -1.422  0.00  0.00    +0.000 C 
ATOM     16  O1  UNL     1      16.687  -5.624  -1.961  0.00  0.00    +0.000 OA
ENDBRANCH   7  15
ENDBRANCH   1  13
BRANCH   6  17
ATOM     17  C15 UNL     1      17.608  -8.105   0.437  0.00  0.00    +0.000 C 
ATOM     18  O2  UNL     1      18.390  -8.186  -0.515  0.00  0.00    +0.000 OA
BRANCH  17  19
ATOM     19  C16 UNL     1      16.331  -8.937   0.490  0.00  0.00    +0.000 C 
BRANCH  19  20
ATOM     20  C17 UNL     1      15.401  -8.539   1.649  0.00  0.00    +0.000 C 
ATOM     21  C18 UNL     1      14.019  -8.115   1.141  0.00  0.00    +0.000 C 
ATOM     22  C19 UNL     1      15.246  -9.708   2.626  0.00  0.00    +0.000 C 
ENDBRANCH  19  20
ENDBRANCH  17  19
ENDBRANCH   6  17
TORSDOF 5
ENDMDL
MODEL 8
REMARK VINA RESULT:    -5.824     35.107     37.692
REMARK INTER + INTRA:          -8.903
REMARK INTER:                  -7.678
REMARK INTRA:                  -1.225
REMARK UNBOUND:                -1.377
REMARK  Name = laboratorio_evolutivo\Gen6_Mutante_2.pdb
REMARK  10 active torsions:
REMARK  status: ('A' for Active; 'I' for Inactive)
REMARK    1  A    between atoms: C1_1  and  C2_2
REMARK    2  A    between atoms: C2_2  and  C3_4
REMARK    3  A    between atoms: C5_6  and  C6_7
REMARK    4  A    between atoms: C8_10  and  C9_11
REMARK    5  A    between atoms: C12_14  and  C13_15
REMARK    6  A    between atoms: C14_16  and  C15_17
REMARK    7  A    between atoms: C15_17  and  C16_19
REMARK    8  A    between atoms: C16_19  and  C17_20
REMARK    9  A    between atoms: C17_20  and  C18_21
REMARK   10  A    between atoms: C17_20  and  C19_22
REMARK                            x       y       z     vdW  Elec       q    Type
REMARK                         _______ _______ _______ _____ _____    ______ ____
ROOT
ATOM      1  C9  UNL     1       8.200  20.797  16.830  0.00  0.00    +0.000 C 
ATOM      2  C10 UNL     1       7.103  21.460  15.971  0.00  0.00    +0.000 C 
ATOM      3  C11 UNL     1       6.638  20.350  15.036  0.00  0.00    +0.000 C 
ATOM      4  C12 UNL     1       7.950  19.675  14.643  0.00  0.00    +0.000 C 
ATOM      5  C13 UNL     1       7.770  18.342  13.936  0.00  0.00    +0.000 C 
ATOM      6  C14 UNL     1       8.799  19.683  15.932  0.00  0.00    +0.000 C 
ENDROOT
BRANCH   1  13
ATOM      7  C3  UNL     1       9.286  22.132  18.739  0.00  0.00    +0.000 C 
ATOM      8  C4  UNL     1      10.325  22.929  19.234  0.00  0.00    +0.000 C 
ATOM      9  C5  UNL     1      11.361  23.272  18.383  0.00  0.00    +0.000 C 
ATOM     10  C6  UNL     1      12.491  24.130  18.868  0.00  0.00    +0.000 C 
ATOM     11  N1  UNL     1      11.402  22.858  17.102  0.00  0.00    +0.000 NA
ATOM     12  C7  UNL     1      10.380  22.093  16.648  0.00  0.00    +0.000 C 
ATOM     13  C8  UNL     1       9.274  21.705  17.400  0.00  0.00    +0.000 C 
BRANCH   7  15
ATOM     14  C1  UNL     1       7.090  22.763  19.890  0.00  0.00    +0.000 C 
ATOM     15  C2  UNL     1       8.209  21.774  19.693  0.00  0.00    +0.000 C 
ATOM     16  O1  UNL     1       8.236  20.692  20.270  0.00  0.00    +0.000 OA
ENDBRANCH   7  15
ENDBRANCH   1  13
BRANCH   6  17
ATOM     17  C15 UNL     1       8.929  18.345  16.668  0.00  0.00    +0.000 C 
ATOM     18  O2  UNL     1       7.927  17.858  17.199  0.00  0.00    +0.000 OA
BRANCH  17  19
ATOM     19  C16 UNL     1      10.271  17.621  16.686  0.00  0.00    +0.000 C 
BRANCH  19  20
ATOM     20  C17 UNL     1      10.440  16.636  15.518  0.00  0.00    +0.000 C 
ATOM     21  C18 UNL     1      11.668  16.976  14.668  0.00  0.00    +0.000 C 
ATOM     22  C19 UNL     1      10.571  15.205  16.048  0.00  0.00    +0.000 C 
ENDBRANCH  19  20
ENDBRANCH  17  19
ENDBRANCH   6  17
TORSDOF 5
ENDMDL
MODEL 9
REMARK VINA RESULT:    -5.754     29.289     31.552
REMARK INTER + INTRA:          -8.813
REMARK INTER:                  -7.167
REMARK INTRA:                  -1.646
REMARK UNBOUND:                -1.377
REMARK  Name = laboratorio_evolutivo\Gen6_Mutante_2.pdb
REMARK  10 active torsions:
REMARK  status: ('A' for Active; 'I' for Inactive)
REMARK    1  A    between atoms: C1_1  and  C2_2
REMARK    2  A    between atoms: C2_2  and  C3_4
REMARK    3  A    between atoms: C5_6  and  C6_7
REMARK    4  A    between atoms: C8_10  and  C9_11
REMARK    5  A    between atoms: C12_14  and  C13_15
REMARK    6  A    between atoms: C14_16  and  C15_17
REMARK    7  A    between atoms: C15_17  and  C16_19
REMARK    8  A    between atoms: C16_19  and  C17_20
REMARK    9  A    between atoms: C17_20  and  C18_21
REMARK   10  A    between atoms: C17_20  and  C19_22
REMARK                            x       y       z     vdW  Elec       q    Type
REMARK                         _______ _______ _______ _____ _____    ______ ____
ROOT
ATOM      1  C9  UNL     1      16.686  -8.087   2.099  0.00  0.00    +0.000 C 
ATOM      2  C10 UNL     1      16.785  -8.945   3.378  0.00  0.00    +0.000 C 
ATOM      3  C11 UNL     1      16.110 -10.258   2.999  0.00  0.00    +0.000 C 
ATOM      4  C12 UNL     1      14.900  -9.789   2.195  0.00  0.00    +0.000 C 
ATOM      5  C13 UNL     1      14.192 -10.902   1.439  0.00  0.00    +0.000 C 
ATOM      6  C14 UNL     1      15.414  -8.591   1.370  0.00  0.00    +0.000 C 
ENDROOT
BRANCH   1  13
ATOM      7  C3  UNL     1      17.778  -5.764   1.962  0.00  0.00    +0.000 C 
ATOM      8  C4  UNL     1      17.707  -4.372   2.096  0.00  0.00    +0.000 C 
ATOM      9  C5  UNL     1      16.520  -3.806   2.526  0.00  0.00    +0.000 C 
ATOM     10  C6  UNL     1      16.401  -2.321   2.692  0.00  0.00    +0.000 C 
ATOM     11  N1  UNL     1      15.434  -4.552   2.811  0.00  0.00    +0.000 NA
ATOM     12  C7  UNL     1      15.533  -5.896   2.678  0.00  0.00    +0.000 C 
ATOM     13  C8  UNL     1      16.678  -6.580   2.279  0.00  0.00    +0.000 C 
BRANCH   7  15
ATOM     14  C1  UNL     1      20.121  -6.633   2.506  0.00  0.00    +0.000 C 
ATOM     15  C2  UNL     1      19.064  -6.321   1.479  0.00  0.00    +0.000 C 
ATOM     16  O1  UNL     1      19.228  -6.538   0.283  0.00  0.00    +0.000 OA
ENDBRANCH   7  15
ENDBRANCH   1  13
BRANCH   6  17
ATOM     17  C15 UNL     1      15.657  -8.847  -0.121  0.00  0.00    +0.000 C 
ATOM     18  O2  UNL     1      14.703  -8.769  -0.902  0.00  0.00    +0.000 OA
BRANCH  17  19
ATOM     19  C16 UNL     1      17.068  -9.140  -0.617  0.00  0.00    +0.000 C 
BRANCH  19  20
ATOM     20  C17 UNL     1      17.254 -10.594  -1.085  0.00  0.00    +0.000 C 
ATOM     21  C18 UNL     1      18.194 -10.682  -2.290  0.00  0.00    +0.000 C 
ATOM     22  C19 UNL     1      17.811 -11.449   0.058  0.00  0.00    +0.000 C 
ENDBRANCH  19  20
ENDBRANCH  17  19
ENDBRANCH   6  17
TORSDOF 5
ENDMDL
