MODEL 1
REMARK VINA RESULT:    -6.374      0.000      0.000
REMARK INTER + INTRA:         -10.301
REMARK INTER:                  -8.796
REMARK INTRA:                  -1.505
REMARK UNBOUND:                -1.505
REMARK  Name = laboratorio_evolutivo\Gen6_Mutante_4.pdb
REMARK  11 active torsions:
REMARK  status: ('A' for Active; 'I' for Inactive)
REMARK    1  A    between atoms: C1_1  and  C2_2
REMARK    2  A    between atoms: C2_2  and  C3_3
REMARK    3  A    between atoms: C5_5  and  C6_6
REMARK    4  A    between atoms: N1_7  and  O1_8
REMARK    5  A    between atoms: C7_9  and  C8_10
REMARK    6  A    between atoms: C11_13  and  C12_14
REMARK    7  A    between atoms: C13_15  and  C14_16
REMARK    8  A    between atoms: C14_16  and  C15_18
REMARK    9  A    between atoms: C15_18  and  C16_19
REMARK   10  A    between atoms: C16_19  and  C17_20
REMARK   11  A    between atoms: C16_19  and  C18_21
REMARK                            x       y       z     vdW  Elec       q    Type
REMARK                         _______ _______ _______ _____ _____    ______ ____
ROOT
ATOM      1  C3  UNL     1      20.826  -8.836   3.419  0.00  0.00    +0.000 C 
ATOM      2  C4  UNL     1      19.719  -9.615   3.119  0.00  0.00    +0.000 C 
ATOM      3  C5  UNL     1      18.622  -9.017   2.491  0.00  0.00    +0.000 C 
ATOM      4  C7  UNL     1      18.647  -7.657   2.153  0.00  0.00    +0.000 C 
ATOM      5  C19 UNL     1      19.804  -6.969   2.515  0.00  0.00    +0.000 C 
ATOM      6  N2  UNL     1      20.877  -7.519   3.125  0.00  0.00    +0.000 NA
ENDROOT
BRANCH   4   7
ATOM      7  C8  UNL     1      17.501  -6.939   1.470  0.00  0.00    +0.000 C 
ATOM      8  C9  UNL     1      16.418  -6.451   2.460  0.00  0.00    +0.000 C 
ATOM      9  C10 UNL     1      16.278  -4.948   2.230  0.00  0.00    +0.000 C 
ATOM     10  C11 UNL     1      16.738  -4.723   0.789  0.00  0.00    +0.000 C 
ATOM     11  C12 UNL     1      15.616  -5.025  -0.207  0.00  0.00    +0.000 C 
ATOM     12  C13 UNL     1      17.944  -5.670   0.700  0.00  0.00    +0.000 C 
BRANCH  12  13
ATOM     13  C14 UNL     1      18.411  -5.938  -0.727  0.00  0.00    +0.000 C 
ATOM     14  O2  UNL     1      18.839  -5.037  -1.448  0.00  0.00    +0.000 OA
BRANCH  13  15
ATOM     15  C15 UNL     1      18.350  -7.388  -1.193  0.00  0.00    +0.000 C 
BRANCH  15  16
ATOM     16  C16 UNL     1      17.220  -7.662  -2.196  0.00  0.00    +0.000 C 
ATOM     17  C17 UNL     1      17.808  -8.035  -3.559  0.00  0.00    +0.000 C 
ATOM     18  C18 UNL     1      16.298  -8.781  -1.706  0.00  0.00    +0.000 C 
ENDBRANCH  15  16
ENDBRANCH  13  15
ENDBRANCH  12  13
ENDBRANCH   4   7
BRANCH   1  20
ATOM     19  C1  UNL     1      23.312  -9.122   3.386  0.00  0.00    +0.000 C 
ATOM     20  C2  UNL     1      22.016  -9.432   4.121  0.00  0.00    +0.000 C 
ENDBRANCH   1  20
BRANCH   3  21
ATOM     21  C6  UNL     1      17.470  -9.878   2.151  0.00  0.00    +0.000 C 
ATOM     22  N1  UNL     1      16.508 -10.269   2.937  0.00  0.00    +0.000 NA
BRANCH  22  23
ATOM     23  O1  UNL     1      16.603  -9.715   4.217  0.00  0.00    +0.000 OA
ATOM     24  H   UNL     1      16.889 -10.244   4.936  0.00  0.00    +0.000 HD
ENDBRANCH  22  23
ENDBRANCH   3  21
TORSDOF 7
ENDMDL
MODEL 2
REMARK VINA RESULT:    -6.202     24.717     27.262
REMARK INTER + INTRA:         -10.063
REMARK INTER:                  -8.484
REMARK INTRA:                  -1.579
REMARK UNBOUND:                -1.505
REMARK  Name = laboratorio_evolutivo\Gen6_Mutante_4.pdb
REMARK  11 active torsions:
REMARK  status: ('A' for Active; 'I' for Inactive)
REMARK    1  A    between atoms: C1_1  and  C2_2
REMARK    2  A    between atoms: C2_2  and  C3_3
REMARK    3  A    between atoms: C5_5  and  C6_6
REMARK    4  A    between atoms: N1_7  and  O1_8
REMARK    5  A    between atoms: C7_9  and  C8_10
REMARK    6  A    between atoms: C11_13  and  C12_14
REMARK    7  A    between atoms: C13_15  and  C14_16
REMARK    8  A    between atoms: C14_16  and  C15_18
REMARK    9  A    between atoms: C15_18  and  C16_19
REMARK   10  A    between atoms: C16_19  and  C17_20
REMARK   11  A    between atoms: C16_19  and  C18_21
REMARK                            x       y       z     vdW  Elec       q    Type
REMARK                         _______ _______ _______ _____ _____    ______ ____
ROOT
ATOM      1  C3  UNL     1       2.997   1.938  21.865  0.00  0.00    +0.000 C 
ATOM      2  C4  UNL     1       2.413   2.332  20.671  0.00  0.00    +0.000 C 
ATOM      3  C5  UNL     1       1.749   1.377  19.896  0.00  0.00    +0.000 C 
ATOM      4  C7  UNL     1       1.657   0.047  20.327  0.00  0.00    +0.000 C 
ATOM      5  C19 UNL     1       2.292  -0.240  21.535  0.00  0.00    +0.000 C 
ATOM      6  N2  UNL     1       2.945   0.661  22.303  0.00  0.00    +0.000 NA
ENDROOT
BRANCH   4   7
ATOM      7  C8  UNL     1       0.952  -1.044  19.546  0.00  0.00    +0.000 C 
ATOM      8  C9  UNL     1       1.863  -1.718  18.494  0.00  0.00    +0.000 C 
ATOM      9  C10 UNL     1       1.842  -3.212  18.810  0.00  0.00    +0.000 C 
ATOM     10  C11 UNL     1       0.518  -3.445  19.538  0.00  0.00    +0.000 C 
ATOM     11  C12 UNL     1      -0.642  -3.593  18.550  0.00  0.00    +0.000 C 
ATOM     12  C13 UNL     1       0.439  -2.203  20.437  0.00  0.00    +0.000 C 
BRANCH  12  13
ATOM     13  C14 UNL     1      -0.944  -1.964  21.035  0.00  0.00    +0.000 C 
ATOM     14  O2  UNL     1      -1.477  -2.784  21.782  0.00  0.00    +0.000 OA
BRANCH  13  15
ATOM     15  C15 UNL     1      -1.609  -0.638  20.683  0.00  0.00    +0.000 C 
BRANCH  15  16
ATOM     16  C16 UNL     1      -2.746  -0.776  19.661  0.00  0.00    +0.000 C 
ATOM     17  C17 UNL     1      -4.074  -0.351  20.293  0.00  0.00    +0.000 C 
ATOM     18  C18 UNL     1      -2.478   0.063  18.410  0.00  0.00    +0.000 C 
ENDBRANCH  15  16
ENDBRANCH  13  15
ENDBRANCH  12  13
ENDBRANCH   4   7
BRANCH   1  20
ATOM     19  C1  UNL     1       3.172   3.004  24.123  0.00  0.00    +0.000 C 
ATOM     20  C2  UNL     1       3.747   2.927  22.716  0.00  0.00    +0.000 C 
ENDBRANCH   1  20
BRANCH   3  21
ATOM     21  C6  UNL     1       1.105   1.832  18.646  0.00  0.00    +0.000 C 
ATOM     22  N1  UNL     1       1.650   1.958  17.470  0.00  0.00    +0.000 NA
BRANCH  22  23
ATOM     23  O1  UNL     1       2.980   1.531  17.447  0.00  0.00    +0.000 OA
ATOM     24  H   UNL     1       3.601   1.897  18.047  0.00  0.00    +0.000 HD
ENDBRANCH  22  23
ENDBRANCH   3  21
TORSDOF 7
ENDMDL
MODEL 3
REMARK VINA RESULT:    -6.003      2.281      4.558
REMARK INTER + INTRA:          -9.788
REMARK INTER:                  -8.450
REMARK INTRA:                  -1.338
REMARK UNBOUND:                -1.505
REMARK  Name = laboratorio_evolutivo\Gen6_Mutante_4.pdb
REMARK  11 active torsions:
REMARK  status: ('A' for Active; 'I' for Inactive)
REMARK    1  A    between atoms: C1_1  and  C2_2
REMARK    2  A    between atoms: C2_2  and  C3_3
REMARK    3  A    between atoms: C5_5  and  C6_6
REMARK    4  A    between atoms: N1_7  and  O1_8
REMARK    5  A    between atoms: C7_9  and  C8_10
REMARK    6  A    between atoms: C11_13  and  C12_14
REMARK    7  A    between atoms: C13_15  and  C14_16
REMARK    8  A    between atoms: C14_16  and  C15_18
REMARK    9  A    between atoms: C15_18  and  C16_19
REMARK   10  A    between atoms: C16_19  and  C17_20
REMARK   11  A    between atoms: C16_19  and  C18_21
REMARK                            x       y       z     vdW  Elec       q    Type
REMARK                         _______ _______ _______ _____ _____    ______ ____
ROOT
ATOM      1  C3  UNL     1      19.755  -8.578   3.667  0.00  0.00    +0.000 C 
ATOM      2  C4  UNL     1      20.059  -7.678   2.657  0.00  0.00    +0.000 C 
ATOM      3  C5  UNL     1      19.019  -7.151   1.886  0.00  0.00    +0.000 C 
ATOM      4  C7  UNL     1      17.689  -7.508   2.141  0.00  0.00    +0.000 C 
ATOM      5  C19 UNL     1      17.500  -8.430   3.170  0.00  0.00    +0.000 C 
ATOM      6  N2  UNL     1      18.486  -8.960   3.929  0.00  0.00    +0.000 NA
ENDROOT
BRANCH   4   7
ATOM      7  C8  UNL     1      16.509  -6.978   1.352  0.00  0.00    +0.000 C 
ATOM      8  C9  UNL     1      16.143  -7.866   0.140  0.00  0.00    +0.000 C 
ATOM      9  C10 UNL     1      14.673  -8.241   0.316  0.00  0.00    +0.000 C 
ATOM     10  C11 UNL     1      14.079  -7.124   1.174  0.00  0.00    +0.000 C 
ATOM     11  C12 UNL     1      13.712  -5.904   0.324  0.00  0.00    +0.000 C 
ATOM     12  C13 UNL     1      15.207  -6.881   2.188  0.00  0.00    +0.000 C 
BRANCH  12  13
ATOM     13  C14 UNL     1      15.062  -5.578   2.968  0.00  0.00    +0.000 C 
ATOM     14  O2  UNL     1      14.223  -5.446   3.858  0.00  0.00    +0.000 OA
BRANCH  13  15
ATOM     15  C15 UNL     1      16.039  -4.466   2.605  0.00  0.00    +0.000 C 
BRANCH  15  16
ATOM     16  C16 UNL     1      15.554  -3.067   3.014  0.00  0.00    +0.000 C 
ATOM     17  C17 UNL     1      16.750  -2.179   3.365  0.00  0.00    +0.000 C 
ATOM     18  C18 UNL     1      14.734  -2.413   1.899  0.00  0.00    +0.000 C 
ENDBRANCH  15  16
ENDBRANCH  13  15
ENDBRANCH  12  13
ENDBRANCH   4   7
BRANCH   1  20
ATOM     19  C1  UNL     1      22.068  -9.533   3.663  0.00  0.00    +0.000 C 
ATOM     20  C2  UNL     1      20.845  -9.193   4.502  0.00  0.00    +0.000 C 
ENDBRANCH   1  20
BRANCH   3  21
ATOM     21  C6  UNL     1      19.369  -6.168   0.839  0.00  0.00    +0.000 C 
ATOM     22  N1  UNL     1      19.526  -4.882   0.973  0.00  0.00    +0.000 NA
BRANCH  22  23
ATOM     23  O1  UNL     1      19.404  -4.464   2.301  0.00  0.00    +0.000 OA
ATOM     24  H   UNL     1      18.816  -4.909   2.880  0.00  0.00    +0.000 HD
ENDBRANCH  22  23
ENDBRANCH   3  21
TORSDOF 7
ENDMDL
MODEL 4
REMARK VINA RESULT:    -5.947      2.780      5.938
REMARK INTER + INTRA:          -9.712
REMARK INTER:                  -8.260
REMARK INTRA:                  -1.451
REMARK UNBOUND:                -1.505
REMARK  Name = laboratorio_evolutivo\Gen6_Mutante_4.pdb
REMARK  11 active torsions:
REMARK  status: ('A' for Active; 'I' for Inactive)
REMARK    1  A    between atoms: C1_1  and  C2_2
REMARK    2  A    between atoms: C2_2  and  C3_3
REMARK    3  A    between atoms: C5_5  and  C6_6
REMARK    4  A    between atoms: N1_7  and  O1_8
REMARK    5  A    between atoms: C7_9  and  C8_10
REMARK    6  A    between atoms: C11_13  and  C12_14
REMARK    7  A    between atoms: C13_15  and  C14_16
REMARK    8  A    between atoms: C14_16  and  C15_18
REMARK    9  A    between atoms: C15_18  and  C16_19
REMARK   10  A    between atoms: C16_19  and  C17_20
REMARK   11  A    between atoms: C16_19  and  C18_21
REMARK                            x       y       z     vdW  Elec       q    Type
REMARK                         _______ _______ _______ _____ _____    ______ ____
ROOT
ATOM      1  C3  UNL     1      18.213  -9.161  -3.730  0.00  0.00    +0.000 C 
ATOM      2  C4  UNL     1      17.854  -7.839  -3.521  0.00  0.00    +0.000 C 
ATOM      3  C5  UNL     1      17.362  -7.462  -2.268  0.00  0.00    +0.000 C 
ATOM      4  C7  UNL     1      17.253  -8.399  -1.232  0.00  0.00    +0.000 C 
ATOM      5  C19 UNL     1      17.629  -9.702  -1.558  0.00  0.00    +0.000 C 
ATOM      6  N2  UNL     1      18.103 -10.096  -2.761  0.00  0.00    +0.000 NA
ENDROOT
BRANCH   4   7
ATOM      7  C8  UNL     1      16.734  -8.068   0.152  0.00  0.00    +0.000 C 
ATOM      8  C9  UNL     1      15.260  -8.486   0.361  0.00  0.00    +0.000 C 
ATOM      9  C10 UNL     1      15.247  -9.400   1.584  0.00  0.00    +0.000 C 
ATOM     10  C11 UNL     1      16.478  -8.994   2.395  0.00  0.00    +0.000 C 
ATOM     11  C12 UNL     1      16.195  -7.762   3.258  0.00  0.00    +0.000 C 
ATOM     12  C13 UNL     1      17.518  -8.774   1.287  0.00  0.00    +0.000 C 
BRANCH  12  13
ATOM     13  C14 UNL     1      18.760  -8.019   1.750  0.00  0.00    +0.000 C 
ATOM     14  O2  UNL     1      19.522  -8.484   2.596  0.00  0.00    +0.000 OA
BRANCH  13  15
ATOM     15  C15 UNL     1      19.018  -6.675   1.078  0.00  0.00    +0.000 C 
BRANCH  15  16
ATOM     16  C16 UNL     1      18.890  -5.479   2.033  0.00  0.00    +0.000 C 
ATOM     17  C17 UNL     1      20.176  -4.650   2.011  0.00  0.00    +0.000 C 
ATOM     18  C18 UNL     1      17.698  -4.594   1.661  0.00  0.00    +0.000 C 
ENDBRANCH  15  16
ENDBRANCH  13  15
ENDBRANCH  12  13
ENDBRANCH   4   7
BRANCH   1  20
ATOM     19  C1  UNL     1      18.682 -11.132  -5.199  0.00  0.00    +0.000 C 
ATOM     20  C2  UNL     1      18.719  -9.617  -5.072  0.00  0.00    +0.000 C 
ENDBRANCH   1  20
BRANCH   3  21
ATOM     21  C6  UNL     1      17.020  -6.039  -2.062  0.00  0.00    +0.000 C 
ATOM     22  N1  UNL     1      17.832  -5.023  -2.015  0.00  0.00    +0.000 NA
BRANCH  22  23
ATOM     23  O1  UNL     1      19.159  -5.386  -2.264  0.00  0.00    +0.000 OA
ATOM     24  H   UNL     1      19.564  -5.151  -3.076  0.00  0.00    +0.000 HD
ENDBRANCH  22  23
ENDBRANCH   3  21
TORSDOF 7
ENDMDL
MODEL 5
REMARK VINA RESULT:    -5.853      2.236      4.346
REMARK INTER + INTRA:          -9.582
REMARK INTER:                  -7.937
REMARK INTRA:                  -1.644
REMARK UNBOUND:                -1.505
REMARK  Name = laboratorio_evolutivo\Gen6_Mutante_4.pdb
REMARK  11 active torsions:
REMARK  status: ('A' for Active; 'I' for Inactive)
REMARK    1  A    between atoms: C1_1  and  C2_2
REMARK    2  A    between atoms: C2_2  and  C3_3
REMARK    3  A    between atoms: C5_5  and  C6_6
REMARK    4  A    between atoms: N1_7  and  O1_8
REMARK    5  A    between atoms: C7_9  and  C8_10
REMARK    6  A    between atoms: C11_13  and  C12_14
REMARK    7  A    between atoms: C13_15  and  C14_16
REMARK    8  A    between atoms: C14_16  and  C15_18
REMARK    9  A    between atoms: C15_18  and  C16_19
REMARK   10  A    between atoms: C16_19  and  C17_20
REMARK   11  A    between atoms: C16_19  and  C18_21
REMARK                            x       y       z     vdW  Elec       q    Type
REMARK                         _______ _______ _______ _____ _____    ______ ____
ROOT
ATOM      1  C3  UNL     1      18.416 -10.697   2.253  0.00  0.00    +0.000 C 
ATOM      2  C4  UNL     1      19.002  -9.533   2.727  0.00  0.00    +0.000 C 
ATOM      3  C5  UNL     1      18.764  -8.333   2.050  0.00  0.00    +0.000 C 
ATOM      4  C7  UNL     1      17.933  -8.301   0.923  0.00  0.00    +0.000 C 
ATOM      5  C19 UNL     1      17.409  -9.531   0.527  0.00  0.00    +0.000 C 
ATOM      6  N2  UNL     1      17.625 -10.707   1.159  0.00  0.00    +0.000 NA
ENDROOT
BRANCH   4   7
ATOM      7  C8  UNL     1      17.625  -7.042   0.140  0.00  0.00    +0.000 C 
ATOM      8  C9  UNL     1      18.505  -6.885  -1.122  0.00  0.00    +0.000 C 
ATOM      9  C10 UNL     1      17.541  -6.742  -2.298  0.00  0.00    +0.000 C 
ATOM     10  C11 UNL     1      16.253  -6.188  -1.689  0.00  0.00    +0.000 C 
ATOM     11  C12 UNL     1      16.330  -4.669  -1.511  0.00  0.00    +0.000 C 
ATOM     12  C13 UNL     1      16.166  -6.982  -0.377  0.00  0.00    +0.000 C 
BRANCH  12  13
ATOM     13  C14 UNL     1      15.172  -6.404   0.626  0.00  0.00    +0.000 C 
ATOM     14  O2  UNL     1      13.971  -6.318   0.372  0.00  0.00    +0.000 OA
BRANCH  13  15
ATOM     15  C15 UNL     1      15.748  -5.974   1.971  0.00  0.00    +0.000 C 
BRANCH  15  16
ATOM     16  C16 UNL     1      15.875  -4.452   2.124  0.00  0.00    +0.000 C 
ATOM     17  C17 UNL     1      15.150  -3.990   3.390  0.00  0.00    +0.000 C 
ATOM     18  C18 UNL     1      17.341  -4.016   2.180  0.00  0.00    +0.000 C 
ENDBRANCH  15  16
ENDBRANCH  13  15
ENDBRANCH  12  13
ENDBRANCH   4   7
BRANCH   1  20
ATOM     19  C1  UNL     1      20.045 -12.058   3.579  0.00  0.00    +0.000 C 
ATOM     20  C2  UNL     1      18.668 -12.015   2.933  0.00  0.00    +0.000 C 
ENDBRANCH   1  20
BRANCH   3  21
ATOM     21  C6  UNL     1      19.372  -7.102   2.598  0.00  0.00    +0.000 C 
ATOM     22  N1  UNL     1      20.484  -6.531   2.232  0.00  0.00    +0.000 NA
BRANCH  22  23
ATOM     23  O1  UNL     1      21.082  -7.173   1.144  0.00  0.00    +0.000 OA
ATOM     24  H   UNL     1      22.014  -7.162   1.048  0.00  0.00    +0.000 HD
ENDBRANCH  22  23
ENDBRANCH   3  21
TORSDOF 7
ENDMDL
MODEL 6
REMARK VINA RESULT:    -5.687      2.704      4.857
REMARK INTER + INTRA:          -9.353
REMARK INTER:                  -8.075
REMARK INTRA:                  -1.278
REMARK UNBOUND:                -1.505
REMARK  Name = laboratorio_evolutivo\Gen6_Mutante_4.pdb
REMARK  11 active torsions:
REMARK  status: ('A' for Active; 'I' for Inactive)
REMARK    1  A    between atoms: C1_1  and  C2_2
REMARK    2  A    between atoms: C2_2  and  C3_3
REMARK    3  A    between atoms: C5_5  and  C6_6
REMARK    4  A    between atoms: N1_7  and  O1_8
REMARK    5  A    between atoms: C7_9  and  C8_10
REMARK    6  A    between atoms: C11_13  and  C12_14
REMARK    7  A    between atoms: C13_15  and  C14_16
REMARK    8  A    between atoms: C14_16  and  C15_18
REMARK    9  A    between atoms: C15_18  and  C16_19
REMARK   10  A    between atoms: C16_19  and  C17_20
REMARK   11  A    between atoms: C16_19  and  C18_21
REMARK                            x       y       z     vdW  Elec       q    Type
REMARK                         _______ _______ _______ _____ _____    ______ ____
ROOT
ATOM      1  C3  UNL     1      17.280  -9.371   1.607  0.00  0.00    +0.000 C 
ATOM      2  C4  UNL     1      18.227  -8.455   2.038  0.00  0.00    +0.000 C 
ATOM      3  C5  UNL     1      18.102  -7.119   1.646  0.00  0.00    +0.000 C 
ATOM      4  C7  UNL     1      17.029  -6.706   0.846  0.00  0.00    +0.000 C 
ATOM      5  C19 UNL     1      16.145  -7.714   0.460  0.00  0.00    +0.000 C 
ATOM      6  N2  UNL     1      16.242  -9.013   0.820  0.00  0.00    +0.000 NA
ENDROOT
BRANCH   4   7
ATOM      7  C8  UNL     1      16.824  -5.279   0.383  0.00  0.00    +0.000 C 
ATOM      8  C9  UNL     1      16.502  -5.173  -1.126  0.00  0.00    +0.000 C 
ATOM      9  C10 UNL     1      15.179  -4.417  -1.226  0.00  0.00    +0.000 C 
ATOM     10  C11 UNL     1      15.103  -3.580   0.052  0.00  0.00    +0.000 C 
ATOM     11  C12 UNL     1      15.905  -2.284  -0.083  0.00  0.00    +0.000 C 
ATOM     12  C13 UNL     1      15.648  -4.565   1.097  0.00  0.00    +0.000 C 
BRANCH  12  13
ATOM     13  C14 UNL     1      16.028  -3.908   2.420  0.00  0.00    +0.000 C 
ATOM     14  O2  UNL     1      17.108  -3.339   2.574  0.00  0.00    +0.000 OA
BRANCH  13  15
ATOM     15  C15 UNL     1      14.979  -3.967   3.525  0.00  0.00    +0.000 C 
BRANCH  15  16
ATOM     16  C16 UNL     1      14.114  -5.235   3.481  0.00  0.00    +0.000 C 
ATOM     17  C17 UNL     1      14.688  -6.295   4.424  0.00  0.00    +0.000 C 
ATOM     18  C18 UNL     1      12.663  -4.935   3.862  0.00  0.00    +0.000 C 
ENDBRANCH  15  16
ENDBRANCH  13  15
ENDBRANCH  12  13
ENDBRANCH   4   7
BRANCH   1  20
ATOM     19  C1  UNL     1      18.332 -11.028   3.159  0.00  0.00    +0.000 C 
ATOM     20  C2  UNL     1      17.391 -10.824   1.981  0.00  0.00    +0.000 C 
ENDBRANCH   1  20
BRANCH   3  21
ATOM     21  C6  UNL     1      19.106  -6.157   2.149  0.00  0.00    +0.000 C 
ATOM     22  N1  UNL     1      20.354  -6.049   1.794  0.00  0.00    +0.000 NA
BRANCH  22  23
ATOM     23  O1  UNL     1      20.696  -6.929   0.763  0.00  0.00    +0.000 OA
ATOM     24  H   UNL     1      20.414  -6.756  -0.114  0.00  0.00    +0.000 HD
ENDBRANCH  22  23
ENDBRANCH   3  21
TORSDOF 7
ENDMDL
MODEL 7
REMARK VINA RESULT:    -5.673     24.847     27.140
REMARK INTER + INTRA:          -9.334
REMARK INTER:                  -7.854
REMARK INTRA:                  -1.480
REMARK UNBOUND:                -1.505
REMARK  Name = laboratorio_evolutivo\Gen6_Mutante_4.pdb
REMARK  11 active torsions:
REMARK  status: ('A' for Active; 'I' for Inactive)
REMARK    1  A    between atoms: C1_1  and  C2_2
REMARK    2  A    between atoms: C2_2  and  C3_3
REMARK    3  A    between atoms: C5_5  and  C6_6
REMARK    4  A    between atoms: N1_7  and  O1_8
REMARK    5  A    between atoms: C7_9  and  C8_10
REMARK    6  A    between atoms: C11_13  and  C12_14
REMARK    7  A    between atoms: C13_15  and  C14_16
REMARK    8  A    between atoms: C14_16  and  C15_18
REMARK    9  A    between atoms: C15_18  and  C16_19
REMARK   10  A    between atoms: C16_19  and  C17_20
REMARK   11  A    between atoms: C16_19  and  C18_21
REMARK                            x       y       z     vdW  Elec       q    Type
REMARK                         _______ _______ _______ _____ _____    ______ ____
ROOT
ATOM      1  C3  UNL     1       2.765   1.347  22.015  0.00  0.00    +0.000 C 
ATOM      2  C4  UNL     1       2.941   1.973  20.791  0.00  0.00    +0.000 C 
ATOM      3  C5  UNL     1       2.403   1.380  19.645  0.00  0.00    +0.000 C 
ATOM      4  C7  UNL     1       1.681   0.183  19.733  0.00  0.00    +0.000 C 
ATOM      5  C19 UNL     1       1.579  -0.366  21.011  0.00  0.00    +0.000 C 
ATOM      6  N2  UNL     1       2.092   0.182  22.135  0.00  0.00    +0.000 NA
ENDROOT
BRANCH   4   7
ATOM      7  C8  UNL     1       1.066  -0.518  18.539  0.00  0.00    +0.000 C 
ATOM      8  C9  UNL     1       1.874  -1.755  18.082  0.00  0.00    +0.000 C 
ATOM      9  C10 UNL     1       0.899  -2.931  18.104  0.00  0.00    +0.000 C 
ATOM     10  C11 UNL     1      -0.484  -2.303  17.930  0.00  0.00    +0.000 C 
ATOM     11  C12 UNL     1      -0.787  -2.022  16.456  0.00  0.00    +0.000 C 
ATOM     12  C13 UNL     1      -0.365  -1.048  18.809  0.00  0.00    +0.000 C 
BRANCH  12  13
ATOM     13  C14 UNL     1      -1.467  -0.022  18.567  0.00  0.00    +0.000 C 
ATOM     14  O2  UNL     1      -1.212   1.134  18.231  0.00  0.00    +0.000 OA
BRANCH  13  15
ATOM     15  C15 UNL     1      -2.898  -0.521  18.730  0.00  0.00    +0.000 C 
BRANCH  15  16
ATOM     16  C16 UNL     1      -3.325  -0.684  20.196  0.00  0.00    +0.000 C 
ATOM     17  C17 UNL     1      -4.728  -0.108  20.400  0.00  0.00    +0.000 C 
ATOM     18  C18 UNL     1      -3.303  -2.154  20.623  0.00  0.00    +0.000 C 
ENDBRANCH  15  16
ENDBRANCH  13  15
ENDBRANCH  12  13
ENDBRANCH   4   7
BRANCH   1  20
ATOM     19  C1  UNL     1       3.725   3.397  23.081  0.00  0.00    +0.000 C 
ATOM     20  C2  UNL     1       3.352   1.935  23.270  0.00  0.00    +0.000 C 
ENDBRANCH   1  20
BRANCH   3  21
ATOM     21  C6  UNL     1       2.575   2.088  18.359  0.00  0.00    +0.000 C 
ATOM     22  N1  UNL     1       1.784   2.972  17.824  0.00  0.00    +0.000 NA
BRANCH  22  23
ATOM     23  O1  UNL     1       0.702   3.292  18.649  0.00  0.00    +0.000 OA
ATOM     24  H   UNL     1      -0.137   3.476  18.272  0.00  0.00    +0.000 HD
ENDBRANCH  22  23
ENDBRANCH   3  21
TORSDOF 7
ENDMDL
MODEL 8
REMARK VINA RESULT:    -5.656      2.471      5.971
REMARK INTER + INTRA:          -9.310
REMARK INTER:                  -8.047
REMARK INTRA:                  -1.262
REMARK UNBOUND:                -1.505
REMARK  Name = laboratorio_evolutivo\Gen6_Mutante_4.pdb
REMARK  11 active torsions:
REMARK  status: ('A' for Active; 'I' for Inactive)
REMARK    1  A    between atoms: C1_1  and  C2_2
REMARK    2  A    between atoms: C2_2  and  C3_3
REMARK    3  A    between atoms: C5_5  and  C6_6
REMARK    4  A    between atoms: N1_7  and  O1_8
REMARK    5  A    between atoms: C7_9  and  C8_10
REMARK    6  A    between atoms: C11_13  and  C12_14
REMARK    7  A    between atoms: C13_15  and  C14_16
REMARK    8  A    between atoms: C14_16  and  C15_18
REMARK    9  A    between atoms: C15_18  and  C16_19
REMARK   10  A    between atoms: C16_19  and  C17_20
REMARK   11  A    between atoms: C16_19  and  C18_21
REMARK                            x       y       z     vdW  Elec       q    Type
REMARK                         _______ _______ _______ _____ _____    ______ ____
ROOT
ATOM      1  C3  UNL     1      16.519  -3.696   2.666  0.00  0.00    +0.000 C 
ATOM      2  C4  UNL     1      15.395  -4.441   2.989  0.00  0.00    +0.000 C 
ATOM      3  C5  UNL     1      15.335  -5.780   2.592  0.00  0.00    +0.000 C 
ATOM      4  C7  UNL     1      16.400  -6.367   1.897  0.00  0.00    +0.000 C 
ATOM      5  C19 UNL     1      17.472  -5.522   1.614  0.00  0.00    +0.000 C 
ATOM      6  N2  UNL     1      17.556  -4.223   1.980  0.00  0.00    +0.000 NA
ENDROOT
BRANCH   4   7
ATOM      7  C8  UNL     1      16.410  -7.810   1.436  0.00  0.00    +0.000 C 
ATOM      8  C9  UNL     1      16.069  -7.969  -0.063  0.00  0.00    +0.000 C 
ATOM      9  C10 UNL     1      17.237  -8.729  -0.687  0.00  0.00    +0.000 C 
ATOM     10  C11 UNL     1      17.856  -9.521   0.466  0.00  0.00    +0.000 C 
ATOM     11  C12 UNL     1      17.090 -10.821   0.723  0.00  0.00    +0.000 C 
ATOM     12  C13 UNL     1      17.787  -8.500   1.611  0.00  0.00    +0.000 C 
BRANCH  12  13
ATOM     13  C14 UNL     1      18.008  -9.110   2.992  0.00  0.00    +0.000 C 
ATOM     14  O2  UNL     1      17.123  -9.116   3.846  0.00  0.00    +0.000 OA
BRANCH  13  15
ATOM     15  C15 UNL     1      19.374  -9.741   3.236  0.00  0.00    +0.000 C 
BRANCH  15  16
ATOM     16  C16 UNL     1      20.214  -8.995   4.283  0.00  0.00    +0.000 C 
ATOM     17  C17 UNL     1      21.493  -9.780   4.586  0.00  0.00    +0.000 C 
ATOM     18  C18 UNL     1      20.574  -7.585   3.809  0.00  0.00    +0.000 C 
ENDBRANCH  15  16
ENDBRANCH  13  15
ENDBRANCH  12  13
ENDBRANCH   4   7
BRANCH   1  20
ATOM     19  C1  UNL     1      15.934  -1.350   2.021  0.00  0.00    +0.000 C 
ATOM     20  C2  UNL     1      16.613  -2.243   3.048  0.00  0.00    +0.000 C 
ENDBRANCH   1  20
BRANCH   3  21
ATOM     21  C6  UNL     1      14.141  -6.560   2.980  0.00  0.00    +0.000 C 
ATOM     22  N1  UNL     1      13.047  -6.737   2.296  0.00  0.00    +0.000 NA
BRANCH  22  23
ATOM     23  O1  UNL     1      13.108  -6.151   1.029  0.00  0.00    +0.000 OA
ATOM     24  H   UNL     1      13.352  -6.666   0.285  0.00  0.00    +0.000 HD
ENDBRANCH  22  23
ENDBRANCH   3  21
TORSDOF 7
ENDMDL
MODEL 9
REMARK VINA RESULT:    -5.567      2.686      5.143
REMARK INTER + INTRA:          -9.187
REMARK INTER:                  -7.727
REMARK INTRA:                  -1.460
REMARK UNBOUND:                -1.505
REMARK  Name = laboratorio_evolutivo\Gen6_Mutante_4.pdb
REMARK  11 active torsions:
REMARK  status: ('A' for Active; 'I' for Inactive)
REMARK    1  A    between atoms: C1_1  and  C2_2
REMARK    2  A    between atoms: C2_2  and  C3_3
REMARK    3  A    between atoms: C5_5  and  C6_6
REMARK    4  A    between atoms: N1_7  and  O1_8
REMARK    5  A    between atoms: C7_9  and  C8_10
REMARK    6  A    between atoms: C11_13  and  C12_14
REMARK    7  A    between atoms: C13_15  and  C14_16
REMARK    8  A    between atoms: C14_16  and  C15_18
REMARK    9  A    between atoms: C15_18  and  C16_19
REMARK   10  A    between atoms: C16_19  and  C17_20
REMARK   11  A    between atoms: C16_19  and  C18_21
REMARK                            x       y       z     vdW  Elec       q    Type
REMARK                         _______ _______ _______ _____ _____    ______ ____
ROOT
ATOM      1  C3  UNL     1      16.153  -4.416   2.524  0.00  0.00    +0.000 C 
ATOM      2  C4  UNL     1      17.392  -4.567   1.922  0.00  0.00    +0.000 C 
ATOM      3  C5  UNL     1      17.849  -5.856   1.629  0.00  0.00    +0.000 C 
ATOM      4  C7  UNL     1      17.060  -6.976   1.920  0.00  0.00    +0.000 C 
ATOM      5  C19 UNL     1      15.839  -6.708   2.538  0.00  0.00    +0.000 C 
ATOM      6  N2  UNL     1      15.373  -5.474   2.837  0.00  0.00    +0.000 NA
ENDROOT
BRANCH   4   7
ATOM      7  C8  UNL     1      17.483  -8.402   1.631  0.00  0.00    +0.000 C 
ATOM      8  C9  UNL     1      17.857  -9.192   2.906  0.00  0.00    +0.000 C 
ATOM      9  C10 UNL     1      16.971 -10.436   2.910  0.00  0.00    +0.000 C 
ATOM     10  C11 UNL     1      16.618 -10.676   1.441  0.00  0.00    +0.000 C 
ATOM     11  C12 UNL     1      17.739 -11.423   0.714  0.00  0.00    +0.000 C 
ATOM     12  C13 UNL     1      16.377  -9.243   0.945  0.00  0.00    +0.000 C 
BRANCH  12  13
ATOM     13  C14 UNL     1      16.348  -9.115  -0.575  0.00  0.00    +0.000 C 
ATOM     14  O2  UNL     1      15.361  -9.441  -1.234  0.00  0.00    +0.000 OA
BRANCH  13  15
ATOM     15  C15 UNL     1      17.597  -8.529  -1.223  0.00  0.00    +0.000 C 
BRANCH  15  16
ATOM     16  C16 UNL     1      17.303  -7.714  -2.492  0.00  0.00    +0.000 C 
ATOM     17  C17 UNL     1      18.033  -6.370  -2.432  0.00  0.00    +0.000 C 
ATOM     18  C18 UNL     1      17.722  -8.475  -3.753  0.00  0.00    +0.000 C 
ENDBRANCH  15  16
ENDBRANCH  13  15
ENDBRANCH  12  13
ENDBRANCH   4   7
BRANCH   1  20
ATOM     19  C1  UNL     1      15.834  -2.059   1.747  0.00  0.00    +0.000 C 
ATOM     20  C2  UNL     1      15.635  -3.049   2.884  0.00  0.00    +0.000 C 
ENDBRANCH   1  20
BRANCH   3  21
ATOM     21  C6  UNL     1      19.158  -5.985   0.955  0.00  0.00    +0.000 C 
ATOM     22  N1  UNL     1      20.321  -6.184   1.505  0.00  0.00    +0.000 NA
BRANCH  22  23
ATOM     23  O1  UNL     1      20.236  -6.355   2.890  0.00  0.00    +0.000 OA
ATOM     24  H   UNL     1      19.559  -5.924   3.374  0.00  0.00    +0.000 HD
ENDBRANCH  22  23
ENDBRANCH   3  21
TORSDOF 7
ENDMDL
