MODEL 1
REMARK VINA RESULT:    -8.685      0.000      0.000
REMARK INTER + INTRA:         -12.361
REMARK INTER:                 -11.223
REMARK INTRA:                  -1.138
REMARK UNBOUND:                -1.138
REMARK  Name = laboratorio_evolutivo\Gen6_Mutante_2.pdb
REMARK  10 active torsions:
REMARK  status: ('A' for Active; 'I' for Inactive)
REMARK    1  A    between atoms: C1_1  and  C2_2
REMARK    2  A    between atoms: C2_2  and  C3_4
REMARK    3  A    between atoms: C5_6  and  C6_7
REMARK    4  A    between atoms: C8_10  and  C9_11
REMARK    5  A    between atoms: C12_14  and  C13_15
REMARK    6  A    between atoms: C14_16  and  C15_17
REMARK    7  A    between atoms: C15_17  and  C16_19
REMARK    8  A    between atoms: C16_19  and  C17_20
REMARK    9  A    between atoms: C17_20  and  C18_21
REMARK   10  A    between atoms: C17_20  and  C19_22
REMARK                            x       y       z     vdW  Elec       q    Type
REMARK                         _______ _______ _______ _____ _____    ______ ____
ROOT
ATOM      1  C9  UNL     1       3.152  67.999  66.272  0.00  0.00    +0.000 C 
ATOM      2  C10 UNL     1       2.858  68.873  67.509  0.00  0.00    +0.000 C 
ATOM      3  C11 UNL     1       3.253  67.994  68.689  0.00  0.00    +0.000 C 
ATOM      4  C12 UNL     1       2.718  66.625  68.277  0.00  0.00    +0.000 C 
ATOM      5  C13 UNL     1       3.222  65.480  69.140  0.00  0.00    +0.000 C 
ATOM      6  C14 UNL     1       2.986  66.537  66.760  0.00  0.00    +0.000 C 
ENDROOT
BRANCH   1  13
ATOM      7  C3  UNL     1       2.917  68.508  63.762  0.00  0.00    +0.000 C 
ATOM      8  C4  UNL     1       2.124  68.709  62.627  0.00  0.00    +0.000 C 
ATOM      9  C5  UNL     1       0.747  68.652  62.760  0.00  0.00    +0.000 C 
ATOM     10  C6  UNL     1      -0.142  68.869  61.573  0.00  0.00    +0.000 C 
ATOM     11  N1  UNL     1       0.153  68.403  63.944  0.00  0.00    +0.000 NA
ATOM     12  C7  UNL     1       0.945  68.218  65.027  0.00  0.00    +0.000 C 
ATOM     13  C8  UNL     1       2.336  68.276  65.022  0.00  0.00    +0.000 C 
BRANCH   7  15
ATOM     14  C1  UNL     1       5.001  67.549  62.631  0.00  0.00    +0.000 C 
ATOM     15  C2  UNL     1       4.386  68.558  63.566  0.00  0.00    +0.000 C 
ATOM     16  O1  UNL     1       5.051  69.417  64.134  0.00  0.00    +0.000 OA
ENDBRANCH   7  15
ENDBRANCH   1  13
BRANCH   6  17
ATOM     17  C15 UNL     1       4.149  65.639  66.326  0.00  0.00    +0.000 C 
ATOM     18  O2  UNL     1       5.284  66.121  66.269  0.00  0.00    +0.000 OA
BRANCH  17  19
ATOM     19  C16 UNL     1       3.894  64.167  66.024  0.00  0.00    +0.000 C 
BRANCH  19  20
ATOM     20  C17 UNL     1       3.445  63.917  64.574  0.00  0.00    +0.000 C 
ATOM     21  C18 UNL     1       2.456  64.987  64.100  0.00  0.00    +0.000 C 
ATOM     22  C19 UNL     1       4.659  63.899  63.641  0.00  0.00    +0.000 C 
ENDBRANCH  19  20
ENDBRANCH  17  19
ENDBRANCH   6  17
TORSDOF 5
ENDMDL
MODEL 2
REMARK VINA RESULT:    -8.183      5.369      8.256
REMARK INTER + INTRA:         -11.713
REMARK INTER:                 -10.191
REMARK INTRA:                  -1.522
REMARK UNBOUND:                -1.138
REMARK  Name = laboratorio_evolutivo\Gen6_Mutante_2.pdb
REMARK  10 active torsions:
REMARK  status: ('A' for Active; 'I' for Inactive)
REMARK    1  A    between atoms: C1_1  and  C2_2
REMARK    2  A    between atoms: C2_2  and  C3_4
REMARK    3  A    between atoms: C5_6  and  C6_7
REMARK    4  A    between atoms: C8_10  and  C9_11
REMARK    5  A    between atoms: C12_14  and  C13_15
REMARK    6  A    between atoms: C14_16  and  C15_17
REMARK    7  A    between atoms: C15_17  and  C16_19
REMARK    8  A    between atoms: C16_19  and  C17_20
REMARK    9  A    between atoms: C17_20  and  C18_21
REMARK   10  A    between atoms: C17_20  and  C19_22
REMARK                            x       y       z     vdW  Elec       q    Type
REMARK                         _______ _______ _______ _____ _____    ______ ____
ROOT
ATOM      1  C9  UNL     1       2.881  61.965  69.879  0.00  0.00    +0.000 C 
ATOM      2  C10 UNL     1       3.755  61.017  69.032  0.00  0.00    +0.000 C 
ATOM      3  C11 UNL     1       4.030  59.837  69.956  0.00  0.00    +0.000 C 
ATOM      4  C12 UNL     1       4.296  60.519  71.296  0.00  0.00    +0.000 C 
ATOM      5  C13 UNL     1       4.318  59.566  72.479  0.00  0.00    +0.000 C 
ATOM      6  C14 UNL     1       3.290  61.688  71.349  0.00  0.00    +0.000 C 
ENDROOT
BRANCH   1  13
ATOM      7  C3  UNL     1       1.844  64.311  69.707  0.00  0.00    +0.000 C 
ATOM      8  C4  UNL     1       1.959  65.678  69.431  0.00  0.00    +0.000 C 
ATOM      9  C5  UNL     1       3.183  66.172  69.014  0.00  0.00    +0.000 C 
ATOM     10  C6  UNL     1       3.350  67.628  68.700  0.00  0.00    +0.000 C 
ATOM     11  N1  UNL     1       4.263  65.378  68.874  0.00  0.00    +0.000 NA
ATOM     12  C7  UNL     1       4.121  64.058  69.142  0.00  0.00    +0.000 C 
ATOM     13  C8  UNL     1       2.939  63.444  69.543  0.00  0.00    +0.000 C 
BRANCH   7  15
ATOM     14  C1  UNL     1       0.049  64.284  71.529  0.00  0.00    +0.000 C 
ATOM     15  C2  UNL     1       0.519  63.834  70.170  0.00  0.00    +0.000 C 
ATOM     16  O1  UNL     1      -0.165  63.122  69.442  0.00  0.00    +0.000 OA
ENDBRANCH   7  15
ENDBRANCH   1  13
BRANCH   6  17
ATOM     17  C15 UNL     1       2.080  61.502  72.270  0.00  0.00    +0.000 C 
ATOM     18  O2  UNL     1       2.074  62.068  73.367  0.00  0.00    +0.000 OA
BRANCH  17  19
ATOM     19  C16 UNL     1       0.893  60.671  71.797  0.00  0.00    +0.000 C 
BRANCH  19  20
ATOM     20  C17 UNL     1       0.612  59.456  72.698  0.00  0.00    +0.000 C 
ATOM     21  C18 UNL     1      -0.869  59.371  73.082  0.00  0.00    +0.000 C 
ATOM     22  C19 UNL     1       1.026  58.164  71.987  0.00  0.00    +0.000 C 
ENDBRANCH  19  20
ENDBRANCH  17  19
ENDBRANCH   6  17
TORSDOF 5
ENDMDL
MODEL 3
REMARK VINA RESULT:    -7.431      6.403      9.920
REMARK INTER + INTRA:         -10.741
REMARK INTER:                  -9.105
REMARK INTRA:                  -1.636
REMARK UNBOUND:                -1.138
REMARK  Name = laboratorio_evolutivo\Gen6_Mutante_2.pdb
REMARK  10 active torsions:
REMARK  status: ('A' for Active; 'I' for Inactive)
REMARK    1  A    between atoms: C1_1  and  C2_2
REMARK    2  A    between atoms: C2_2  and  C3_4
REMARK    3  A    between atoms: C5_6  and  C6_7
REMARK    4  A    between atoms: C8_10  and  C9_11
REMARK    5  A    between atoms: C12_14  and  C13_15
REMARK    6  A    between atoms: C14_16  and  C15_17
REMARK    7  A    between atoms: C15_17  and  C16_19
REMARK    8  A    between atoms: C16_19  and  C17_20
REMARK    9  A    between atoms: C17_20  and  C18_21
REMARK   10  A    between atoms: C17_20  and  C19_22
REMARK                            x       y       z     vdW  Elec       q    Type
REMARK                         _______ _______ _______ _____ _____    ______ ____
ROOT
ATOM      1  C9  UNL     1       2.274  61.304  72.118  0.00  0.00    +0.000 C 
ATOM      2  C10 UNL     1       3.544  60.667  72.719  0.00  0.00    +0.000 C 
ATOM      3  C11 UNL     1       4.564  60.729  71.589  0.00  0.00    +0.000 C 
ATOM      4  C12 UNL     1       3.731  60.347  70.368  0.00  0.00    +0.000 C 
ATOM      5  C13 UNL     1       4.425  60.606  69.041  0.00  0.00    +0.000 C 
ATOM      6  C14 UNL     1       2.364  61.028  70.595  0.00  0.00    +0.000 C 
ENDROOT
BRANCH   1  13
ATOM      7  C3  UNL     1       0.017  61.761  73.261  0.00  0.00    +0.000 C 
ATOM      8  C4  UNL     1      -1.222  61.317  73.737  0.00  0.00    +0.000 C 
ATOM      9  C5  UNL     1      -1.536  59.974  73.620  0.00  0.00    +0.000 C 
ATOM     10  C6  UNL     1      -2.848  59.453  74.123  0.00  0.00    +0.000 C 
ATOM     11  N1  UNL     1      -0.690  59.088  73.058  0.00  0.00    +0.000 NA
ATOM     12  C7  UNL     1       0.505  59.545  72.612  0.00  0.00    +0.000 C 
ATOM     13  C8  UNL     1       0.942  60.864  72.696  0.00  0.00    +0.000 C 
BRANCH   7  15
ATOM     14  C1  UNL     1       0.949  63.687  74.662  0.00  0.00    +0.000 C 
ATOM     15  C2  UNL     1       0.299  63.211  73.390  0.00  0.00    +0.000 C 
ATOM     16  O1  UNL     1       0.028  63.973  72.467  0.00  0.00    +0.000 OA
ENDBRANCH   7  15
ENDBRANCH   1  13
BRANCH   6  17
ATOM     17  C15 UNL     1       2.080  62.277  69.755  0.00  0.00    +0.000 C 
ATOM     18  O2  UNL     1       1.406  62.162  68.727  0.00  0.00    +0.000 OA
BRANCH  17  19
ATOM     19  C16 UNL     1       2.586  63.636  70.227  0.00  0.00    +0.000 C 
BRANCH  19  20
ATOM     20  C17 UNL     1       3.422  64.369  69.165  0.00  0.00    +0.000 C 
ATOM     21  C18 UNL     1       3.026  65.845  69.057  0.00  0.00    +0.000 C 
ATOM     22  C19 UNL     1       4.913  64.267  69.504  0.00  0.00    +0.000 C 
ENDBRANCH  19  20
ENDBRANCH  17  19
ENDBRANCH   6  17
TORSDOF 5
ENDMDL
MODEL 4
REMARK VINA RESULT:    -7.036      7.767     11.206
REMARK INTER + INTRA:         -10.231
REMARK INTER:                  -9.097
REMARK INTRA:                  -1.134
REMARK UNBOUND:                -1.138
REMARK  Name = laboratorio_evolutivo\Gen6_Mutante_2.pdb
REMARK  10 active torsions:
REMARK  status: ('A' for Active; 'I' for Inactive)
REMARK    1  A    between atoms: C1_1  and  C2_2
REMARK    2  A    between atoms: C2_2  and  C3_4
REMARK    3  A    between atoms: C5_6  and  C6_7
REMARK    4  A    between atoms: C8_10  and  C9_11
REMARK    5  A    between atoms: C12_14  and  C13_15
REMARK    6  A    between atoms: C14_16  and  C15_17
REMARK    7  A    between atoms: C15_17  and  C16_19
REMARK    8  A    between atoms: C16_19  and  C17_20
REMARK    9  A    between atoms: C17_20  and  C18_21
REMARK   10  A    between atoms: C17_20  and  C19_22
REMARK                            x       y       z     vdW  Elec       q    Type
REMARK                         _______ _______ _______ _____ _____    ______ ____
ROOT
ATOM      1  C9  UNL     1       1.549  59.221  72.024  0.00  0.00    +0.000 C 
ATOM      2  C10 UNL     1       1.706  57.820  71.397  0.00  0.00    +0.000 C 
ATOM      3  C11 UNL     1       2.883  57.970  70.440  0.00  0.00    +0.000 C 
ATOM      4  C12 UNL     1       2.622  59.332  69.802  0.00  0.00    +0.000 C 
ATOM      5  C13 UNL     1       3.798  59.877  69.009  0.00  0.00    +0.000 C 
ATOM      6  C14 UNL     1       2.079  60.208  70.951  0.00  0.00    +0.000 C 
ENDROOT
BRANCH   1  13
ATOM      7  C3  UNL     1      -0.498  58.925  73.551  0.00  0.00    +0.000 C 
ATOM      8  C4  UNL     1      -1.753  59.347  74.005  0.00  0.00    +0.000 C 
ATOM      9  C5  UNL     1      -2.325  60.469  73.429  0.00  0.00    +0.000 C 
ATOM     10  C6  UNL     1      -3.671  60.953  73.879  0.00  0.00    +0.000 C 
ATOM     11  N1  UNL     1      -1.707  61.167  72.455  0.00  0.00    +0.000 NA
ATOM     12  C7  UNL     1      -0.497  60.732  72.031  0.00  0.00    +0.000 C 
ATOM     13  C8  UNL     1       0.165  59.607  72.514  0.00  0.00    +0.000 C 
BRANCH   7  15
ATOM     14  C1  UNL     1      -0.461  56.382  73.819  0.00  0.00    +0.000 C 
ATOM     15  C2  UNL     1       0.082  57.732  74.211  0.00  0.00    +0.000 C 
ATOM     16  O1  UNL     1       0.990  57.862  75.025  0.00  0.00    +0.000 OA
ENDBRANCH   7  15
ENDBRANCH   1  13
BRANCH   6  17
ATOM     17  C15 UNL     1       3.047  61.242  71.533  0.00  0.00    +0.000 C 
ATOM     18  O2  UNL     1       3.992  60.850  72.225  0.00  0.00    +0.000 OA
BRANCH  17  19
ATOM     19  C16 UNL     1       2.857  62.720  71.210  0.00  0.00    +0.000 C 
BRANCH  19  20
ATOM     20  C17 UNL     1       2.112  62.956  69.885  0.00  0.00    +0.000 C 
ATOM     21  C18 UNL     1       0.796  63.707  70.105  0.00  0.00    +0.000 C 
ATOM     22  C19 UNL     1       2.994  63.752  68.918  0.00  0.00    +0.000 C 
ENDBRANCH  19  20
ENDBRANCH  17  19
ENDBRANCH   6  17
TORSDOF 5
ENDMDL
MODEL 5
REMARK VINA RESULT:    -6.849      6.727     10.224
REMARK INTER + INTRA:          -9.989
REMARK INTER:                  -9.334
REMARK INTRA:                  -0.655
REMARK UNBOUND:                -1.138
REMARK  Name = laboratorio_evolutivo\Gen6_Mutante_2.pdb
REMARK  10 active torsions:
REMARK  status: ('A' for Active; 'I' for Inactive)
REMARK    1  A    between atoms: C1_1  and  C2_2
REMARK    2  A    between atoms: C2_2  and  C3_4
REMARK    3  A    between atoms: C5_6  and  C6_7
REMARK    4  A    between atoms: C8_10  and  C9_11
REMARK    5  A    between atoms: C12_14  and  C13_15
REMARK    6  A    between atoms: C14_16  and  C15_17
REMARK    7  A    between atoms: C15_17  and  C16_19
REMARK    8  A    between atoms: C16_19  and  C17_20
REMARK    9  A    between atoms: C17_20  and  C18_21
REMARK   10  A    between atoms: C17_20  and  C19_22
REMARK                            x       y       z     vdW  Elec       q    Type
REMARK                         _______ _______ _______ _____ _____    ______ ____
ROOT
ATOM      1  C9  UNL     1       2.310  61.273  72.033  0.00  0.00    +0.000 C 
ATOM      2  C10 UNL     1       3.558  60.692  72.730  0.00  0.00    +0.000 C 
ATOM      3  C11 UNL     1       4.650  60.777  71.671  0.00  0.00    +0.000 C 
ATOM      4  C12 UNL     1       3.917  60.348  70.402  0.00  0.00    +0.000 C 
ATOM      5  C13 UNL     1       4.692  60.615  69.122  0.00  0.00    +0.000 C 
ATOM      6  C14 UNL     1       2.515  60.981  70.524  0.00  0.00    +0.000 C 
ENDROOT
BRANCH   1  13
ATOM      7  C3  UNL     1       0.677  59.442  72.800  0.00  0.00    +0.000 C 
ATOM      8  C4  UNL     1      -0.570  59.051  73.301  0.00  0.00    +0.000 C 
ATOM      9  C5  UNL     1      -1.522  60.025  73.548  0.00  0.00    +0.000 C 
ATOM     10  C6  UNL     1      -2.874  59.651  74.077  0.00  0.00    +0.000 C 
ATOM     11  N1  UNL     1      -1.281  61.332  73.327  0.00  0.00    +0.000 NA
ATOM     12  C7  UNL     1      -0.068  61.681  72.836  0.00  0.00    +0.000 C 
ATOM     13  C8  UNL     1       0.958  60.792  72.526  0.00  0.00    +0.000 C 
BRANCH   7  15
ATOM     14  C1  UNL     1       1.697  57.714  71.214  0.00  0.00    +0.000 C 
ATOM     15  C2  UNL     1       1.670  58.365  72.572  0.00  0.00    +0.000 C 
ATOM     16  O1  UNL     1       2.451  58.052  73.465  0.00  0.00    +0.000 OA
ENDBRANCH   7  15
ENDBRANCH   1  13
BRANCH   6  17
ATOM     17  C15 UNL     1       2.244  62.207  69.648  0.00  0.00    +0.000 C 
ATOM     18  O2  UNL     1       1.688  62.048  68.557  0.00  0.00    +0.000 OA
BRANCH  17  19
ATOM     19  C16 UNL     1       2.615  63.596  70.156  0.00  0.00    +0.000 C 
BRANCH  19  20
ATOM     20  C17 UNL     1       3.465  64.396  69.154  0.00  0.00    +0.000 C 
ATOM     21  C18 UNL     1       3.034  65.865  69.097  0.00  0.00    +0.000 C 
ATOM     22  C19 UNL     1       4.946  64.317  69.537  0.00  0.00    +0.000 C 
ENDBRANCH  19  20
ENDBRANCH  17  19
ENDBRANCH   6  17
TORSDOF 5
ENDMDL
MODEL 6
REMARK VINA RESULT:    -6.657     19.955     21.966
REMARK INTER + INTRA:          -9.741
REMARK INTER:                  -8.123
REMARK INTRA:                  -1.618
REMARK UNBOUND:                -1.138
REMARK  Name = laboratorio_evolutivo\Gen6_Mutante_2.pdb
REMARK  10 active torsions:
REMARK  status: ('A' for Active; 'I' for Inactive)
REMARK    1  A    between atoms: C1_1  and  C2_2
REMARK    2  A    between atoms: C2_2  and  C3_4
REMARK    3  A    between atoms: C5_6  and  C6_7
REMARK    4  A    between atoms: C8_10  and  C9_11
REMARK    5  A    between atoms: C12_14  and  C13_15
REMARK    6  A    between atoms: C14_16  and  C15_17
REMARK    7  A    between atoms: C15_17  and  C16_19
REMARK    8  A    between atoms: C16_19  and  C17_20
REMARK    9  A    between atoms: C17_20  and  C18_21
REMARK   10  A    between atoms: C17_20  and  C19_22
REMARK                            x       y       z     vdW  Elec       q    Type
REMARK                         _______ _______ _______ _____ _____    ______ ____
ROOT
ATOM      1  C9  UNL     1      12.728  49.873  58.536  0.00  0.00    +0.000 C 
ATOM      2  C10 UNL     1      11.241  50.286  58.522  0.00  0.00    +0.000 C 
ATOM      3  C11 UNL     1      10.675  49.597  57.286  0.00  0.00    +0.000 C 
ATOM      4  C12 UNL     1      11.784  49.799  56.256  0.00  0.00    +0.000 C 
ATOM      5  C13 UNL     1      11.617  48.961  54.998  0.00  0.00    +0.000 C 
ATOM      6  C14 UNL     1      13.096  49.629  57.050  0.00  0.00    +0.000 C 
ENDROOT
BRANCH   1  13
ATOM      7  C3  UNL     1      14.185  50.620  60.519  0.00  0.00    +0.000 C 
ATOM      8  C4  UNL     1      15.120  51.494  61.084  0.00  0.00    +0.000 C 
ATOM      9  C5  UNL     1      15.585  52.553  60.324  0.00  0.00    +0.000 C 
ATOM     10  C6  UNL     1      16.581  53.518  60.891  0.00  0.00    +0.000 C 
ATOM     11  N1  UNL     1      15.169  52.761  59.059  0.00  0.00    +0.000 NA
ATOM     12  C7  UNL     1      14.258  51.904  58.539  0.00  0.00    +0.000 C 
ATOM     13  C8  UNL     1      13.701  50.820  59.213  0.00  0.00    +0.000 C 
BRANCH   7  15
ATOM     14  C1  UNL     1      14.701  48.359  61.596  0.00  0.00    +0.000 C 
ATOM     15  C2  UNL     1      13.733  49.490  61.365  0.00  0.00    +0.000 C 
ATOM     16  O1  UNL     1      12.616  49.510  61.870  0.00  0.00    +0.000 OA
ENDBRANCH   7  15
ENDBRANCH   1  13
BRANCH   6  17
ATOM     17  C15 UNL     1      13.850  48.312  56.841  0.00  0.00    +0.000 C 
ATOM     18  O2  UNL     1      13.303  47.254  57.169  0.00  0.00    +0.000 OA
BRANCH  17  19
ATOM     19  C16 UNL     1      15.229  48.326  56.192  0.00  0.00    +0.000 C 
BRANCH  19  20
ATOM     20  C17 UNL     1      16.212  49.287  56.884  0.00  0.00    +0.000 C 
ATOM     21  C18 UNL     1      16.673  48.741  58.238  0.00  0.00    +0.000 C 
ATOM     22  C19 UNL     1      17.433  49.527  55.991  0.00  0.00    +0.000 C 
ENDBRANCH  19  20
ENDBRANCH  17  19
ENDBRANCH   6  17
TORSDOF 5
ENDMDL
MODEL 7
REMARK VINA RESULT:    -6.579     19.853     21.571
REMARK INTER + INTRA:          -9.641
REMARK INTER:                  -8.092
REMARK INTRA:                  -1.548
REMARK UNBOUND:                -1.138
REMARK  Name = laboratorio_evolutivo\Gen6_Mutante_2.pdb
REMARK  10 active torsions:
REMARK  status: ('A' for Active; 'I' for Inactive)
REMARK    1  A    between atoms: C1_1  and  C2_2
REMARK    2  A    between atoms: C2_2  and  C3_4
REMARK    3  A    between atoms: C5_6  and  C6_7
REMARK    4  A    between atoms: C8_10  and  C9_11
REMARK    5  A    between atoms: C12_14  and  C13_15
REMARK    6  A    between atoms: C14_16  and  C15_17
REMARK    7  A    between atoms: C15_17  and  C16_19
REMARK    8  A    between atoms: C16_19  and  C17_20
REMARK    9  A    between atoms: C17_20  and  C18_21
REMARK   10  A    between atoms: C17_20  and  C19_22
REMARK                            x       y       z     vdW  Elec       q    Type
REMARK                         _______ _______ _______ _____ _____    ______ ____
ROOT
ATOM      1  C9  UNL     1      13.940  51.014  58.562  0.00  0.00    +0.000 C 
ATOM      2  C10 UNL     1      13.854  52.537  58.798  0.00  0.00    +0.000 C 
ATOM      3  C11 UNL     1      14.986  52.828  59.775  0.00  0.00    +0.000 C 
ATOM      4  C12 UNL     1      14.896  51.655  60.747  0.00  0.00    +0.000 C 
ATOM      5  C13 UNL     1      16.095  51.527  61.672  0.00  0.00    +0.000 C 
ATOM      6  C14 UNL     1      14.552  50.436  59.865  0.00  0.00    +0.000 C 
ENDROOT
BRANCH   1  13
ATOM      7  C3  UNL     1      12.523  49.560  56.985  0.00  0.00    +0.000 C 
ATOM      8  C4  UNL     1      11.337  48.878  56.691  0.00  0.00    +0.000 C 
ATOM      9  C5  UNL     1      10.299  48.924  57.606  0.00  0.00    +0.000 C 
ATOM     10  C6  UNL     1       9.008  48.215  57.330  0.00  0.00    +0.000 C 
ATOM     11  N1  UNL     1      10.401  49.599  58.769  0.00  0.00    +0.000 NA
ATOM     12  C7  UNL     1      11.558  50.255  59.024  0.00  0.00    +0.000 C 
ATOM     13  C8  UNL     1      12.658  50.302  58.172  0.00  0.00    +0.000 C 
BRANCH   7  15
ATOM     14  C1  UNL     1      14.598  48.335  56.130  0.00  0.00    +0.000 C 
ATOM     15  C2  UNL     1      13.612  49.464  55.984  0.00  0.00    +0.000 C 
ATOM     16  O1  UNL     1      13.670  50.271  55.062  0.00  0.00    +0.000 OA
ENDBRANCH   7  15
ENDBRANCH   1  13
BRANCH   6  17
ATOM     17  C15 UNL     1      15.693  49.452  59.590  0.00  0.00    +0.000 C 
ATOM     18  O2  UNL     1      16.629  49.812  58.870  0.00  0.00    +0.000 OA
BRANCH  17  19
ATOM     19  C16 UNL     1      15.678  48.076  60.246  0.00  0.00    +0.000 C 
BRANCH  19  20
ATOM     20  C17 UNL     1      14.976  48.069  61.615  0.00  0.00    +0.000 C 
ATOM     21  C18 UNL     1      13.988  46.905  61.735  0.00  0.00    +0.000 C 
ATOM     22  C19 UNL     1      16.012  47.972  62.739  0.00  0.00    +0.000 C 
ENDBRANCH  19  20
ENDBRANCH  17  19
ENDBRANCH   6  17
TORSDOF 5
ENDMDL
MODEL 8
REMARK VINA RESULT:    -6.468     18.995     23.040
REMARK INTER + INTRA:          -9.497
REMARK INTER:                  -7.613
REMARK INTRA:                  -1.884
REMARK UNBOUND:                -1.138
REMARK  Name = laboratorio_evolutivo\Gen6_Mutante_2.pdb
REMARK  10 active torsions:
REMARK  status: ('A' for Active; 'I' for Inactive)
REMARK    1  A    between atoms: C1_1  and  C2_2
REMARK    2  A    between atoms: C2_2  and  C3_4
REMARK    3  A    between atoms: C5_6  and  C6_7
REMARK    4  A    between atoms: C8_10  and  C9_11
REMARK    5  A    between atoms: C12_14  and  C13_15
REMARK    6  A    between atoms: C14_16  and  C15_17
REMARK    7  A    between atoms: C15_17  and  C16_19
REMARK    8  A    between atoms: C16_19  and  C17_20
REMARK    9  A    between atoms: C17_20  and  C18_21
REMARK   10  A    between atoms: C17_20  and  C19_22
REMARK                            x       y       z     vdW  Elec       q    Type
REMARK                         _______ _______ _______ _____ _____    ______ ____
ROOT
ATOM      1  C9  UNL     1      -7.818  83.114  53.988  0.00  0.00    +0.000 C 
ATOM      2  C10 UNL     1      -9.062  82.369  54.515  0.00  0.00    +0.000 C 
ATOM      3  C11 UNL     1     -10.235  83.216  54.035  0.00  0.00    +0.000 C 
ATOM      4  C12 UNL     1      -9.739  84.639  54.279  0.00  0.00    +0.000 C 
ATOM      5  C13 UNL     1     -10.594  85.711  53.623  0.00  0.00    +0.000 C 
ATOM      6  C14 UNL     1      -8.242  84.604  53.907  0.00  0.00    +0.000 C 
ENDROOT
BRANCH   1  13
ATOM      7  C3  UNL     1      -5.280  82.735  54.140  0.00  0.00    +0.000 C 
ATOM      8  C4  UNL     1      -4.106  82.624  54.894  0.00  0.00    +0.000 C 
ATOM      9  C5  UNL     1      -4.188  82.736  56.272  0.00  0.00    +0.000 C 
ATOM     10  C6  UNL     1      -2.958  82.616  57.120  0.00  0.00    +0.000 C 
ATOM     11  N1  UNL     1      -5.358  82.957  56.903  0.00  0.00    +0.000 NA
ATOM     12  C7  UNL     1      -6.479  83.054  56.148  0.00  0.00    +0.000 C 
ATOM     13  C8  UNL     1      -6.526  82.934  54.762  0.00  0.00    +0.000 C 
BRANCH   7  15
ATOM     14  C1  UNL     1      -4.487  83.776  51.943  0.00  0.00    +0.000 C 
ATOM     15  C2  UNL     1      -5.138  82.628  52.669  0.00  0.00    +0.000 C 
ATOM     16  O1  UNL     1      -5.522  81.618  52.088  0.00  0.00    +0.000 OA
ENDBRANCH   7  15
ENDBRANCH   1  13
BRANCH   6  17
ATOM     17  C15 UNL     1      -7.858  85.250  52.572  0.00  0.00    +0.000 C 
ATOM     18  O2  UNL     1      -8.178  84.684  51.522  0.00  0.00    +0.000 OA
BRANCH  17  19
ATOM     19  C16 UNL     1      -7.140  86.595  52.562  0.00  0.00    +0.000 C 
BRANCH  19  20
ATOM     20  C17 UNL     1      -6.579  86.988  53.940  0.00  0.00    +0.000 C 
ATOM     21  C18 UNL     1      -5.106  86.595  54.081  0.00  0.00    +0.000 C 
ATOM     22  C19 UNL     1      -6.725  88.497  54.158  0.00  0.00    +0.000 C 
ENDBRANCH  19  20
ENDBRANCH  17  19
ENDBRANCH   6  17
TORSDOF 5
ENDMDL
MODEL 9
REMARK VINA RESULT:    -6.415     20.305     22.423
REMARK INTER + INTRA:          -9.428
REMARK INTER:                  -7.806
REMARK INTRA:                  -1.622
REMARK UNBOUND:                -1.138
REMARK  Name = laboratorio_evolutivo\Gen6_Mutante_2.pdb
REMARK  10 active torsions:
REMARK  status: ('A' for Active; 'I' for Inactive)
REMARK    1  A    between atoms: C1_1  and  C2_2
REMARK    2  A    between atoms: C2_2  and  C3_4
REMARK    3  A    between atoms: C5_6  and  C6_7
REMARK    4  A    between atoms: C8_10  and  C9_11
REMARK    5  A    between atoms: C12_14  and  C13_15
REMARK    6  A    between atoms: C14_16  and  C15_17
REMARK    7  A    between atoms: C15_17  and  C16_19
REMARK    8  A    between atoms: C16_19  and  C17_20
REMARK    9  A    between atoms: C17_20  and  C18_21
REMARK   10  A    between atoms: C17_20  and  C19_22
REMARK                            x       y       z     vdW  Elec       q    Type
REMARK                         _______ _______ _______ _____ _____    ______ ____
ROOT
ATOM      1  C9  UNL     1      15.612  49.788  58.185  0.00  0.00    +0.000 C 
ATOM      2  C10 UNL     1      16.862  49.327  57.408  0.00  0.00    +0.000 C 
ATOM      3  C11 UNL     1      16.327  48.943  56.033  0.00  0.00    +0.000 C 
ATOM      4  C12 UNL     1      15.030  48.213  56.374  0.00  0.00    +0.000 C 
ATOM      5  C13 UNL     1      14.129  47.965  55.176  0.00  0.00    +0.000 C 
ATOM      6  C14 UNL     1      14.431  49.003  57.557  0.00  0.00    +0.000 C 
ENDROOT
BRANCH   1  13
ATOM      7  C3  UNL     1      15.461  50.729  60.573  0.00  0.00    +0.000 C 
ATOM      8  C4  UNL     1      15.451  50.541  61.960  0.00  0.00    +0.000 C 
ATOM      9  C5  UNL     1      15.605  49.259  62.458  0.00  0.00    +0.000 C 
ATOM     10  C6  UNL     1      15.609  49.013  63.937  0.00  0.00    +0.000 C 
ATOM     11  N1  UNL     1      15.756  48.191  61.650  0.00  0.00    +0.000 NA
ATOM     12  C7  UNL     1      15.768  48.403  60.312  0.00  0.00    +0.000 C 
ATOM     13  C8  UNL     1      15.647  49.645  59.696  0.00  0.00    +0.000 C 
BRANCH   7  15
ATOM     14  C1  UNL     1      16.357  53.117  60.387  0.00  0.00    +0.000 C 
ATOM     15  C2  UNL     1      15.271  52.116  60.087  0.00  0.00    +0.000 C 
ATOM     16  O1  UNL     1      14.270  52.409  59.442  0.00  0.00    +0.000 OA
ENDBRANCH   7  15
ENDBRANCH   1  13
BRANCH   6  17
ATOM     17  C15 UNL     1      13.234  49.903  57.236  0.00  0.00    +0.000 C 
ATOM     18  O2  UNL     1      13.370  50.796  56.394  0.00  0.00    +0.000 OA
BRANCH  17  19
ATOM     19  C16 UNL     1      11.894  49.650  57.918  0.00  0.00    +0.000 C 
BRANCH  19  20
ATOM     20  C17 UNL     1      12.020  48.807  59.198  0.00  0.00    +0.000 C 
ATOM     21  C18 UNL     1      11.967  49.681  60.455  0.00  0.00    +0.000 C 
ATOM     22  C19 UNL     1      10.898  47.766  59.257  0.00  0.00    +0.000 C 
ENDBRANCH  19  20
ENDBRANCH  17  19
ENDBRANCH   6  17
TORSDOF 5
ENDMDL
