MODEL 1
REMARK VINA RESULT:    -8.829      0.000      0.000
REMARK INTER + INTRA:         -11.421
REMARK INTER:                 -11.668
REMARK INTRA:                   0.248
REMARK UNBOUND:                 0.248
REMARK  Name = laboratorio_evolutivo\Gen6_Mutante_5.pdb
REMARK  10 active torsions:
REMARK  status: ('A' for Active; 'I' for Inactive)
REMARK    1  A    between atoms: C1_1  and  C2_2
REMARK    2  A    between atoms: C4_4  and  C5_5
REMARK    3  A    between atoms: N1_6  and  O1_7
REMARK    4  A    between atoms: C6_8  and  C7_9
REMARK    5  A    between atoms: C10_12  and  C11_13
REMARK    6  A    between atoms: C12_14  and  C13_15
REMARK    7  A    between atoms: C13_15  and  C14_17
REMARK    8  A    between atoms: C14_17  and  C15_18
REMARK    9  A    between atoms: C15_18  and  C16_19
REMARK   10  A    between atoms: C15_18  and  C17_20
REMARK                            x       y       z     vdW  Elec       q    Type
REMARK                         _______ _______ _______ _____ _____    ______ ____
ROOT
ATOM      1  C1  UNL     1       1.026  64.194  70.376  0.00  0.00    +0.000 C 
ATOM      2  C2  UNL     1       1.746  65.061  69.387  0.00  0.00    +0.000 C 
ATOM      3  C3  UNL     1       1.106  66.137  68.801  0.00  0.00    +0.000 C 
ATOM      4  C4  UNL     1       1.818  66.925  67.894  0.00  0.00    +0.000 C 
ATOM      5  C6  UNL     1       3.149  66.631  67.562  0.00  0.00    +0.000 C 
ATOM      6  C18 UNL     1       3.691  65.532  68.225  0.00  0.00    +0.000 C 
ATOM      7  F1  UNL     1       4.971  65.198  68.008  0.00  0.00    +0.000 F 
ATOM      8  N2  UNL     1       3.026  64.750  69.104  0.00  0.00    +0.000 NA
ENDROOT
BRANCH   5   9
ATOM      9  C7  UNL     1       3.956  67.479  66.602  0.00  0.00    +0.000 C 
ATOM     10  C8  UNL     1       3.404  68.885  66.270  0.00  0.00    +0.000 C 
ATOM     11  C9  UNL     1       3.202  68.910  64.763  0.00  0.00    +0.000 C 
ATOM     12  C10 UNL     1       4.274  67.969  64.211  0.00  0.00    +0.000 C 
ATOM     13  C11 UNL     1       5.629  68.665  64.074  0.00  0.00    +0.000 C 
ATOM     14  C12 UNL     1       4.322  66.825  65.244  0.00  0.00    +0.000 C 
BRANCH  14  15
ATOM     15  C13 UNL     1       3.412  65.675  64.799  0.00  0.00    +0.000 C 
ATOM     16  O2  UNL     1       2.209  65.841  64.606  0.00  0.00    +0.000 OA
BRANCH  15  17
ATOM     17  C14 UNL     1       4.095  64.334  64.565  0.00  0.00    +0.000 C 
BRANCH  17  18
ATOM     18  C15 UNL     1       4.246  63.953  63.086  0.00  0.00    +0.000 C 
ATOM     19  C16 UNL     1       4.591  65.195  62.261  0.00  0.00    +0.000 C 
ATOM     20  C17 UNL     1       5.326  62.888  62.885  0.00  0.00    +0.000 C 
ENDBRANCH  17  18
ENDBRANCH  15  17
ENDBRANCH  14  15
ENDBRANCH   5   9
BRANCH   4  21
ATOM     21  C5  UNL     1       1.097  68.045  67.252  0.00  0.00    +0.000 C 
ATOM     22  N1  UNL     1       0.211  67.982  66.302  0.00  0.00    +0.000 NA
BRANCH  22  23
ATOM     23  O1  UNL     1      -0.080  66.667  65.929  0.00  0.00    +0.000 OA
ATOM     24  H   UNL     1      -0.795  66.213  66.331  0.00  0.00    +0.000 HD
ENDBRANCH  22  23
ENDBRANCH   4  21
TORSDOF 6
ENDMDL
MODEL 2
REMARK VINA RESULT:    -8.648      2.277      4.298
REMARK INTER + INTRA:         -11.181
REMARK INTER:                 -11.261
REMARK INTRA:                   0.080
REMARK UNBOUND:                 0.248
REMARK  Name = laboratorio_evolutivo\Gen6_Mutante_5.pdb
REMARK  10 active torsions:
REMARK  status: ('A' for Active; 'I' for Inactive)
REMARK    1  A    between atoms: C1_1  and  C2_2
REMARK    2  A    between atoms: C4_4  and  C5_5
REMARK    3  A    between atoms: N1_6  and  O1_7
REMARK    4  A    between atoms: C6_8  and  C7_9
REMARK    5  A    between atoms: C10_12  and  C11_13
REMARK    6  A    between atoms: C12_14  and  C13_15
REMARK    7  A    between atoms: C13_15  and  C14_17
REMARK    8  A    between atoms: C14_17  and  C15_18
REMARK    9  A    between atoms: C15_18  and  C16_19
REMARK   10  A    between atoms: C15_18  and  C17_20
REMARK                            x       y       z     vdW  Elec       q    Type
REMARK                         _______ _______ _______ _____ _____    ______ ____
ROOT
ATOM      1  C1  UNL     1       3.720  63.589  69.069  0.00  0.00    +0.000 C 
ATOM      2  C2  UNL     1       3.896  64.360  67.795  0.00  0.00    +0.000 C 
ATOM      3  C3  UNL     1       3.559  63.792  66.581  0.00  0.00    +0.000 C 
ATOM      4  C4  UNL     1       3.728  64.549  65.419  0.00  0.00    +0.000 C 
ATOM      5  C6  UNL     1       4.245  65.853  65.468  0.00  0.00    +0.000 C 
ATOM      6  C18 UNL     1       4.534  66.322  66.748  0.00  0.00    +0.000 C 
ATOM      7  F1  UNL     1       4.990  67.573  66.903  0.00  0.00    +0.000 F 
ATOM      8  N2  UNL     1       4.384  65.611  67.888  0.00  0.00    +0.000 NA
ENDROOT
BRANCH   5   9
ATOM      9  C7  UNL     1       4.417  66.708  64.231  0.00  0.00    +0.000 C 
ATOM     10  C8  UNL     1       5.653  67.635  64.183  0.00  0.00    +0.000 C 
ATOM     11  C9  UNL     1       5.112  69.048  64.031  0.00  0.00    +0.000 C 
ATOM     12  C10 UNL     1       3.806  68.883  63.253  0.00  0.00    +0.000 C 
ATOM     13  C11 UNL     1       4.049  68.778  61.746  0.00  0.00    +0.000 C 
ATOM     14  C12 UNL     1       3.203  67.584  63.825  0.00  0.00    +0.000 C 
BRANCH  14  15
ATOM     15  C13 UNL     1       2.219  67.913  64.952  0.00  0.00    +0.000 C 
ATOM     16  O2  UNL     1       2.438  68.816  65.758  0.00  0.00    +0.000 OA
BRANCH  15  17
ATOM     17  C14 UNL     1       0.939  67.088  64.984  0.00  0.00    +0.000 C 
BRANCH  17  18
ATOM     18  C15 UNL     1       0.091  67.290  66.249  0.00  0.00    +0.000 C 
ATOM     19  C16 UNL     1       0.983  67.214  67.490  0.00  0.00    +0.000 C 
ATOM     20  C17 UNL     1      -0.645  68.631  66.227  0.00  0.00    +0.000 C 
ENDBRANCH  17  18
ENDBRANCH  15  17
ENDBRANCH  14  15
ENDBRANCH   5   9
BRANCH   4  21
ATOM     21  C5  UNL     1       3.400  63.903  64.131  0.00  0.00    +0.000 C 
ATOM     22  N1  UNL     1       4.215  63.579  63.170  0.00  0.00    +0.000 NA
BRANCH  22  23
ATOM     23  O1  UNL     1       5.547  63.860  63.483  0.00  0.00    +0.000 OA
ATOM     24  H   UNL     1       5.754  64.348  64.256  0.00  0.00    +0.000 HD
ENDBRANCH  22  23
ENDBRANCH   4  21
TORSDOF 6
ENDMDL
MODEL 3
REMARK VINA RESULT:    -7.465      8.185     10.183
REMARK INTER + INTRA:          -9.617
REMARK INTER:                  -8.519
REMARK INTRA:                  -1.098
REMARK UNBOUND:                 0.248
REMARK  Name = laboratorio_evolutivo\Gen6_Mutante_5.pdb
REMARK  10 active torsions:
REMARK  status: ('A' for Active; 'I' for Inactive)
REMARK    1  A    between atoms: C1_1  and  C2_2
REMARK    2  A    between atoms: C4_4  and  C5_5
REMARK    3  A    between atoms: N1_6  and  O1_7
REMARK    4  A    between atoms: C6_8  and  C7_9
REMARK    5  A    between atoms: C10_12  and  C11_13
REMARK    6  A    between atoms: C12_14  and  C13_15
REMARK    7  A    between atoms: C13_15  and  C14_17
REMARK    8  A    between atoms: C14_17  and  C15_18
REMARK    9  A    between atoms: C15_18  and  C16_19
REMARK   10  A    between atoms: C15_18  and  C17_20
REMARK                            x       y       z     vdW  Elec       q    Type
REMARK                         _______ _______ _______ _____ _____    ______ ____
ROOT
ATOM      1  C1  UNL     1       2.066  54.912  73.860  0.00  0.00    +0.000 C 
ATOM      2  C2  UNL     1       1.606  56.335  73.758  0.00  0.00    +0.000 C 
ATOM      3  C3  UNL     1       1.300  57.056  74.898  0.00  0.00    +0.000 C 
ATOM      4  C4  UNL     1       0.886  58.383  74.759  0.00  0.00    +0.000 C 
ATOM      5  C6  UNL     1       0.760  58.977  73.494  0.00  0.00    +0.000 C 
ATOM      6  C18 UNL     1       1.109  58.158  72.422  0.00  0.00    +0.000 C 
ATOM      7  F1  UNL     1       1.066  58.650  71.175  0.00  0.00    +0.000 F 
ATOM      8  N2  UNL     1       1.510  56.871  72.526  0.00  0.00    +0.000 NA
ENDROOT
BRANCH   5   9
ATOM      9  C7  UNL     1       0.338  60.419  73.309  0.00  0.00    +0.000 C 
ATOM     10  C8  UNL     1      -0.631  60.725  72.144  0.00  0.00    +0.000 C 
ATOM     11  C9  UNL     1       0.088  61.726  71.253  0.00  0.00    +0.000 C 
ATOM     12  C10 UNL     1       0.981  62.523  72.205  0.00  0.00    +0.000 C 
ATOM     13  C11 UNL     1       0.212  63.646  72.903  0.00  0.00    +0.000 C 
ATOM     14  C12 UNL     1       1.480  61.464  73.209  0.00  0.00    +0.000 C 
BRANCH  14  15
ATOM     15  C13 UNL     1       2.839  60.916  72.763  0.00  0.00    +0.000 C 
ATOM     16  O2  UNL     1       3.543  60.242  73.515  0.00  0.00    +0.000 OA
BRANCH  15  17
ATOM     17  C14 UNL     1       3.242  61.214  71.325  0.00  0.00    +0.000 C 
BRANCH  17  18
ATOM     18  C15 UNL     1       4.225  60.201  70.722  0.00  0.00    +0.000 C 
ATOM     19  C16 UNL     1       3.737  59.760  69.341  0.00  0.00    +0.000 C 
ATOM     20  C17 UNL     1       5.635  60.783  70.606  0.00  0.00    +0.000 C 
ENDBRANCH  17  18
ENDBRANCH  15  17
ENDBRANCH  14  15
ENDBRANCH   5   9
BRANCH   4  21
ATOM     21  C5  UNL     1       0.526  59.117  75.990  0.00  0.00    +0.000 C 
ATOM     22  N1  UNL     1       1.294  59.864  76.726  0.00  0.00    +0.000 NA
BRANCH  22  23
ATOM     23  O1  UNL     1       2.585  59.981  76.204  0.00  0.00    +0.000 OA
ATOM     24  H   UNL     1       2.871  59.398  75.528  0.00  0.00    +0.000 HD
ENDBRANCH  22  23
ENDBRANCH   4  21
TORSDOF 6
ENDMDL
MODEL 4
REMARK VINA RESULT:    -7.253     19.780     21.460
REMARK INTER + INTRA:          -9.337
REMARK INTER:                  -8.292
REMARK INTRA:                  -1.045
REMARK UNBOUND:                 0.248
REMARK  Name = laboratorio_evolutivo\Gen6_Mutante_5.pdb
REMARK  10 active torsions:
REMARK  status: ('A' for Active; 'I' for Inactive)
REMARK    1  A    between atoms: C1_1  and  C2_2
REMARK    2  A    between atoms: C4_4  and  C5_5
REMARK    3  A    between atoms: N1_6  and  O1_7
REMARK    4  A    between atoms: C6_8  and  C7_9
REMARK    5  A    between atoms: C10_12  and  C11_13
REMARK    6  A    between atoms: C12_14  and  C13_15
REMARK    7  A    between atoms: C13_15  and  C14_17
REMARK    8  A    between atoms: C14_17  and  C15_18
REMARK    9  A    between atoms: C15_18  and  C16_19
REMARK   10  A    between atoms: C15_18  and  C17_20
REMARK                            x       y       z     vdW  Elec       q    Type
REMARK                         _______ _______ _______ _____ _____    ______ ____
ROOT
ATOM      1  C1  UNL     1      16.670  53.540  61.180  0.00  0.00    +0.000 C 
ATOM      2  C2  UNL     1      15.697  52.683  60.428  0.00  0.00    +0.000 C 
ATOM      3  C3  UNL     1      15.822  52.514  59.062  0.00  0.00    +0.000 C 
ATOM      4  C4  UNL     1      14.901  51.697  58.402  0.00  0.00    +0.000 C 
ATOM      5  C6  UNL     1      13.855  51.070  59.096  0.00  0.00    +0.000 C 
ATOM      6  C18 UNL     1      13.840  51.302  60.470  0.00  0.00    +0.000 C 
ATOM      7  F1  UNL     1      12.906  50.711  61.228  0.00  0.00    +0.000 F 
ATOM      8  N2  UNL     1      14.715  52.090  61.135  0.00  0.00    +0.000 NA
ENDROOT
BRANCH   5   9
ATOM      9  C7  UNL     1      12.855  50.160  58.416  0.00  0.00    +0.000 C 
ATOM     10  C8  UNL     1      11.422  50.129  58.997  0.00  0.00    +0.000 C 
ATOM     11  C9  UNL     1      11.163  48.685  59.395  0.00  0.00    +0.000 C 
ATOM     12  C10 UNL     1      11.990  47.855  58.412  0.00  0.00    +0.000 C 
ATOM     13  C11 UNL     1      11.263  47.654  57.081  0.00  0.00    +0.000 C 
ATOM     14  C12 UNL     1      13.282  48.679  58.237  0.00  0.00    +0.000 C 
BRANCH  14  15
ATOM     15  C13 UNL     1      14.359  48.181  59.206  0.00  0.00    +0.000 C 
ATOM     16  O2  UNL     1      15.555  48.225  58.922  0.00  0.00    +0.000 OA
BRANCH  15  17
ATOM     17  C14 UNL     1      13.864  47.674  60.554  0.00  0.00    +0.000 C 
BRANCH  17  18
ATOM     18  C15 UNL     1      14.982  47.349  61.555  0.00  0.00    +0.000 C 
ATOM     19  C16 UNL     1      15.266  48.569  62.433  0.00  0.00    +0.000 C 
ATOM     20  C17 UNL     1      14.618  46.154  62.439  0.00  0.00    +0.000 C 
ENDBRANCH  17  18
ENDBRANCH  15  17
ENDBRANCH  14  15
ENDBRANCH   5   9
BRANCH   4  21
ATOM     21  C5  UNL     1      15.032  51.568  56.935  0.00  0.00    +0.000 C 
ATOM     22  N1  UNL     1      15.904  50.868  56.271  0.00  0.00    +0.000 NA
BRANCH  22  23
ATOM     23  O1  UNL     1      16.753  50.139  57.109  0.00  0.00    +0.000 OA
ATOM     24  H   UNL     1      17.048  50.513  57.916  0.00  0.00    +0.000 HD
ENDBRANCH  22  23
ENDBRANCH   4  21
TORSDOF 6
ENDMDL
MODEL 5
REMARK VINA RESULT:    -7.204      6.474     10.652
REMARK INTER + INTRA:          -9.273
REMARK INTER:                  -8.132
REMARK INTRA:                  -1.141
REMARK UNBOUND:                 0.248
REMARK  Name = laboratorio_evolutivo\Gen6_Mutante_5.pdb
REMARK  10 active torsions:
REMARK  status: ('A' for Active; 'I' for Inactive)
REMARK    1  A    between atoms: C1_1  and  C2_2
REMARK    2  A    between atoms: C4_4  and  C5_5
REMARK    3  A    between atoms: N1_6  and  O1_7
REMARK    4  A    between atoms: C6_8  and  C7_9
REMARK    5  A    between atoms: C10_12  and  C11_13
REMARK    6  A    between atoms: C12_14  and  C13_15
REMARK    7  A    between atoms: C13_15  and  C14_17
REMARK    8  A    between atoms: C14_17  and  C15_18
REMARK    9  A    between atoms: C15_18  and  C16_19
REMARK   10  A    between atoms: C15_18  and  C17_20
REMARK                            x       y       z     vdW  Elec       q    Type
REMARK                         _______ _______ _______ _____ _____    ______ ____
ROOT
ATOM      1  C1  UNL     1       1.053  64.222  70.164  0.00  0.00    +0.000 C 
ATOM      2  C2  UNL     1       1.341  62.872  70.749  0.00  0.00    +0.000 C 
ATOM      3  C3  UNL     1       2.629  62.528  71.117  0.00  0.00    +0.000 C 
ATOM      4  C4  UNL     1       2.851  61.265  71.669  0.00  0.00    +0.000 C 
ATOM      5  C6  UNL     1       1.802  60.348  71.836  0.00  0.00    +0.000 C 
ATOM      6  C18 UNL     1       0.548  60.812  71.444  0.00  0.00    +0.000 C 
ATOM      7  F1  UNL     1      -0.525  60.025  71.605  0.00  0.00    +0.000 F 
ATOM      8  N2  UNL     1       0.304  62.027  70.903  0.00  0.00    +0.000 NA
ENDROOT
BRANCH   5   9
ATOM      9  C7  UNL     1       2.005  58.981  72.454  0.00  0.00    +0.000 C 
ATOM     10  C8  UNL     1       1.299  57.788  71.770  0.00  0.00    +0.000 C 
ATOM     11  C9  UNL     1       0.391  57.176  72.826  0.00  0.00    +0.000 C 
ATOM     12  C10 UNL     1       1.102  57.445  74.153  0.00  0.00    +0.000 C 
ATOM     13  C11 UNL     1       2.189  56.408  74.439  0.00  0.00    +0.000 C 
ATOM     14  C12 UNL     1       1.695  58.857  73.969  0.00  0.00    +0.000 C 
BRANCH  14  15
ATOM     15  C13 UNL     1       0.736  59.908  74.535  0.00  0.00    +0.000 C 
ATOM     16  O2  UNL     1      -0.479  59.719  74.579  0.00  0.00    +0.000 OA
BRANCH  15  17
ATOM     17  C14 UNL     1       1.379  61.176  75.081  0.00  0.00    +0.000 C 
BRANCH  17  18
ATOM     18  C15 UNL     1       0.403  62.346  75.274  0.00  0.00    +0.000 C 
ATOM     19  C16 UNL     1       0.488  62.863  76.711  0.00  0.00    +0.000 C 
ATOM     20  C17 UNL     1       0.693  63.489  74.299  0.00  0.00    +0.000 C 
ENDBRANCH  17  18
ENDBRANCH  15  17
ENDBRANCH  14  15
ENDBRANCH   5   9
BRANCH   4  21
ATOM     21  C5  UNL     1       4.243  60.907  72.014  0.00  0.00    +0.000 C 
ATOM     22  N1  UNL     1       5.121  60.306  71.267  0.00  0.00    +0.000 NA
BRANCH  22  23
ATOM     23  O1  UNL     1       4.637  60.042  69.983  0.00  0.00    +0.000 OA
ATOM     24  H   UNL     1       5.235  59.837  69.290  0.00  0.00    +0.000 HD
ENDBRANCH  22  23
ENDBRANCH   4  21
TORSDOF 6
ENDMDL
MODEL 6
REMARK VINA RESULT:    -7.124     19.561     21.889
REMARK INTER + INTRA:          -9.167
REMARK INTER:                  -8.027
REMARK INTRA:                  -1.140
REMARK UNBOUND:                 0.248
REMARK  Name = laboratorio_evolutivo\Gen6_Mutante_5.pdb
REMARK  10 active torsions:
REMARK  status: ('A' for Active; 'I' for Inactive)
REMARK    1  A    between atoms: C1_1  and  C2_2
REMARK    2  A    between atoms: C4_4  and  C5_5
REMARK    3  A    between atoms: N1_6  and  O1_7
REMARK    4  A    between atoms: C6_8  and  C7_9
REMARK    5  A    between atoms: C10_12  and  C11_13
REMARK    6  A    between atoms: C12_14  and  C13_15
REMARK    7  A    between atoms: C13_15  and  C14_17
REMARK    8  A    between atoms: C14_17  and  C15_18
REMARK    9  A    between atoms: C15_18  and  C16_19
REMARK   10  A    between atoms: C15_18  and  C17_20
REMARK                            x       y       z     vdW  Elec       q    Type
REMARK                         _______ _______ _______ _____ _____    ______ ____
ROOT
ATOM      1  C1  UNL     1      12.402  45.158  60.773  0.00  0.00    +0.000 C 
ATOM      2  C2  UNL     1      13.044  46.510  60.833  0.00  0.00    +0.000 C 
ATOM      3  C3  UNL     1      14.265  46.679  61.460  0.00  0.00    +0.000 C 
ATOM      4  C4  UNL     1      14.834  47.955  61.483  0.00  0.00    +0.000 C 
ATOM      5  C6  UNL     1      14.183  49.054  60.902  0.00  0.00    +0.000 C 
ATOM      6  C18 UNL     1      12.967  48.758  60.288  0.00  0.00    +0.000 C 
ATOM      7  F1  UNL     1      12.289  49.734  59.665  0.00  0.00    +0.000 F 
ATOM      8  N2  UNL     1      12.391  47.536  60.253  0.00  0.00    +0.000 NA
ENDROOT
BRANCH   5   9
ATOM      9  C7  UNL     1      14.783  50.443  60.887  0.00  0.00    +0.000 C 
ATOM     10  C8  UNL     1      13.803  51.634  60.989  0.00  0.00    +0.000 C 
ATOM     11  C9  UNL     1      14.022  52.465  59.734  0.00  0.00    +0.000 C 
ATOM     12  C10 UNL     1      15.495  52.254  59.380  0.00  0.00    +0.000 C 
ATOM     13  C11 UNL     1      16.413  53.172  60.189  0.00  0.00    +0.000 C 
ATOM     14  C12 UNL     1      15.740  50.768  59.711  0.00  0.00    +0.000 C 
BRANCH  14  15
ATOM     15  C13 UNL     1      15.555  49.912  58.454  0.00  0.00    +0.000 C 
ATOM     16  O2  UNL     1      14.706  50.184  57.606  0.00  0.00    +0.000 OA
BRANCH  15  17
ATOM     17  C14 UNL     1      16.513  48.739  58.295  0.00  0.00    +0.000 C 
BRANCH  17  18
ATOM     18  C15 UNL     1      16.059  47.688  57.273  0.00  0.00    +0.000 C 
ATOM     19  C16 UNL     1      17.275  46.946  56.714  0.00  0.00    +0.000 C 
ATOM     20  C17 UNL     1      15.085  46.683  57.891  0.00  0.00    +0.000 C 
ENDBRANCH  17  18
ENDBRANCH  15  17
ENDBRANCH  14  15
ENDBRANCH   5   9
BRANCH   4  21
ATOM     21  C5  UNL     1      16.119  48.115  62.195  0.00  0.00    +0.000 C 
ATOM     22  N1  UNL     1      16.313  48.575  63.396  0.00  0.00    +0.000 NA
BRANCH  22  23
ATOM     23  O1  UNL     1      15.117  48.888  64.048  0.00  0.00    +0.000 OA
ATOM     24  H   UNL     1      14.996  49.739  64.420  0.00  0.00    +0.000 HD
ENDBRANCH  22  23
ENDBRANCH   4  21
TORSDOF 6
ENDMDL
MODEL 7
REMARK VINA RESULT:    -7.080      7.555      9.946
REMARK INTER + INTRA:          -9.108
REMARK INTER:                  -8.515
REMARK INTRA:                  -0.593
REMARK UNBOUND:                 0.248
REMARK  Name = laboratorio_evolutivo\Gen6_Mutante_5.pdb
REMARK  10 active torsions:
REMARK  status: ('A' for Active; 'I' for Inactive)
REMARK    1  A    between atoms: C1_1  and  C2_2
REMARK    2  A    between atoms: C4_4  and  C5_5
REMARK    3  A    between atoms: N1_6  and  O1_7
REMARK    4  A    between atoms: C6_8  and  C7_9
REMARK    5  A    between atoms: C10_12  and  C11_13
REMARK    6  A    between atoms: C12_14  and  C13_15
REMARK    7  A    between atoms: C13_15  and  C14_17
REMARK    8  A    between atoms: C14_17  and  C15_18
REMARK    9  A    between atoms: C15_18  and  C16_19
REMARK   10  A    between atoms: C15_18  and  C17_20
REMARK                            x       y       z     vdW  Elec       q    Type
REMARK                         _______ _______ _______ _____ _____    ______ ____
ROOT
ATOM      1  C1  UNL     1      -2.916  59.473  74.244  0.00  0.00    +0.000 C 
ATOM      2  C2  UNL     1      -1.629  59.794  73.546  0.00  0.00    +0.000 C 
ATOM      3  C3  UNL     1      -1.234  61.107  73.374  0.00  0.00    +0.000 C 
ATOM      4  C4  UNL     1      -0.022  61.362  72.728  0.00  0.00    +0.000 C 
ATOM      5  C6  UNL     1       0.778  60.316  72.242  0.00  0.00    +0.000 C 
ATOM      6  C18 UNL     1       0.284  59.036  72.487  0.00  0.00    +0.000 C 
ATOM      7  F1  UNL     1       0.999  57.969  72.101  0.00  0.00    +0.000 F 
ATOM      8  N2  UNL     1      -0.886  58.760  73.105  0.00  0.00    +0.000 NA
ENDROOT
BRANCH   5   9
ATOM      9  C7  UNL     1       2.108  60.556  71.561  0.00  0.00    +0.000 C 
ATOM     10  C8  UNL     1       2.451  59.657  70.351  0.00  0.00    +0.000 C 
ATOM     11  C9  UNL     1       3.746  58.945  70.712  0.00  0.00    +0.000 C 
ATOM     12  C10 UNL     1       4.486  59.923  71.625  0.00  0.00    +0.000 C 
ATOM     13  C11 UNL     1       5.251  60.981  70.828  0.00  0.00    +0.000 C 
ATOM     14  C12 UNL     1       3.362  60.551  72.474  0.00  0.00    +0.000 C 
BRANCH  14  15
ATOM     15  C13 UNL     1       3.213  59.790  73.795  0.00  0.00    +0.000 C 
ATOM     16  O2  UNL     1       2.578  60.255  74.741  0.00  0.00    +0.000 OA
BRANCH  15  17
ATOM     17  C14 UNL     1       3.855  58.410  73.849  0.00  0.00    +0.000 C 
BRANCH  17  18
ATOM     18  C15 UNL     1       3.737  57.713  75.212  0.00  0.00    +0.000 C 
ATOM     19  C16 UNL     1       2.591  56.700  75.179  0.00  0.00    +0.000 C 
ATOM     20  C17 UNL     1       5.037  57.004  75.598  0.00  0.00    +0.000 C 
ENDBRANCH  17  18
ENDBRANCH  15  17
ENDBRANCH  14  15
ENDBRANCH   5   9
BRANCH   4  21
ATOM     21  C5  UNL     1       0.357  62.776  72.521  0.00  0.00    +0.000 C 
ATOM     22  N1  UNL     1       0.213  63.490  71.444  0.00  0.00    +0.000 NA
BRANCH  22  23
ATOM     23  O1  UNL     1      -0.427  62.787  70.419  0.00  0.00    +0.000 OA
ATOM     24  H   UNL     1      -1.081  63.211  69.898  0.00  0.00    +0.000 HD
ENDBRANCH  22  23
ENDBRANCH   4  21
TORSDOF 6
ENDMDL
MODEL 8
REMARK VINA RESULT:    -6.979      7.703     11.698
REMARK INTER + INTRA:          -8.976
REMARK INTER:                  -7.820
REMARK INTRA:                  -1.156
REMARK UNBOUND:                 0.248
REMARK  Name = laboratorio_evolutivo\Gen6_Mutante_5.pdb
REMARK  10 active torsions:
REMARK  status: ('A' for Active; 'I' for Inactive)
REMARK    1  A    between atoms: C1_1  and  C2_2
REMARK    2  A    between atoms: C4_4  and  C5_5
REMARK    3  A    between atoms: N1_6  and  O1_7
REMARK    4  A    between atoms: C6_8  and  C7_9
REMARK    5  A    between atoms: C10_12  and  C11_13
REMARK    6  A    between atoms: C12_14  and  C13_15
REMARK    7  A    between atoms: C13_15  and  C14_17
REMARK    8  A    between atoms: C14_17  and  C15_18
REMARK    9  A    between atoms: C15_18  and  C16_19
REMARK   10  A    between atoms: C15_18  and  C17_20
REMARK                            x       y       z     vdW  Elec       q    Type
REMARK                         _______ _______ _______ _____ _____    ______ ____
ROOT
ATOM      1  C1  UNL     1       0.168  63.264  70.948  0.00  0.00    +0.000 C 
ATOM      2  C2  UNL     1       0.452  61.831  71.282  0.00  0.00    +0.000 C 
ATOM      3  C3  UNL     1       1.620  61.229  70.852  0.00  0.00    +0.000 C 
ATOM      4  C4  UNL     1       1.850  59.895  71.195  0.00  0.00    +0.000 C 
ATOM      5  C6  UNL     1       0.916  59.164  71.946  0.00  0.00    +0.000 C 
ATOM      6  C18 UNL     1      -0.214  59.881  72.335  0.00  0.00    +0.000 C 
ATOM      7  F1  UNL     1      -1.144  59.283  73.093  0.00  0.00    +0.000 F 
ATOM      8  N2  UNL     1      -0.465  61.170  72.014  0.00  0.00    +0.000 NA
ENDROOT
BRANCH   5   9
ATOM      9  C7  UNL     1       1.146  57.726  72.357  0.00  0.00    +0.000 C 
ATOM     10  C8  UNL     1      -0.100  56.817  72.466  0.00  0.00    +0.000 C 
ATOM     11  C9  UNL     1      -0.128  56.316  73.902  0.00  0.00    +0.000 C 
ATOM     12  C10 UNL     1       1.342  56.256  74.322  0.00  0.00    +0.000 C 
ATOM     13  C11 UNL     1       2.018  54.968  73.849  0.00  0.00    +0.000 C 
ATOM     14  C12 UNL     1       1.962  57.502  73.657  0.00  0.00    +0.000 C 
BRANCH  14  15
ATOM     15  C13 UNL     1       1.968  58.675  74.642  0.00  0.00    +0.000 C 
ATOM     16  O2  UNL     1       2.617  59.698  74.425  0.00  0.00    +0.000 OA
BRANCH  15  17
ATOM     17  C14 UNL     1       1.089  58.518  75.876  0.00  0.00    +0.000 C 
BRANCH  17  18
ATOM     18  C15 UNL     1      -0.069  59.522  75.958  0.00  0.00    +0.000 C 
ATOM     19  C16 UNL     1      -1.318  58.831  76.510  0.00  0.00    +0.000 C 
ATOM     20  C17 UNL     1       0.285  60.722  76.838  0.00  0.00    +0.000 C 
ENDBRANCH  17  18
ENDBRANCH  15  17
ENDBRANCH  14  15
ENDBRANCH   5   9
BRANCH   4  21
ATOM     21  C5  UNL     1       3.086  59.263  70.687  0.00  0.00    +0.000 C 
ATOM     22  N1  UNL     1       4.286  59.349  71.181  0.00  0.00    +0.000 NA
BRANCH  22  23
ATOM     23  O1  UNL     1       4.327  60.101  72.358  0.00  0.00    +0.000 OA
ATOM     24  H   UNL     1       4.488  59.678  73.179  0.00  0.00    +0.000 HD
ENDBRANCH  22  23
ENDBRANCH   4  21
TORSDOF 6
ENDMDL
MODEL 9
REMARK VINA RESULT:    -6.967     20.056     22.594
REMARK INTER + INTRA:          -8.960
REMARK INTER:                  -7.888
REMARK INTRA:                  -1.072
REMARK UNBOUND:                 0.248
REMARK  Name = laboratorio_evolutivo\Gen6_Mutante_5.pdb
REMARK  10 active torsions:
REMARK  status: ('A' for Active; 'I' for Inactive)
REMARK    1  A    between atoms: C1_1  and  C2_2
REMARK    2  A    between atoms: C4_4  and  C5_5
REMARK    3  A    between atoms: N1_6  and  O1_7
REMARK    4  A    between atoms: C6_8  and  C7_9
REMARK    5  A    between atoms: C10_12  and  C11_13
REMARK    6  A    between atoms: C12_14  and  C13_15
REMARK    7  A    between atoms: C13_15  and  C14_17
REMARK    8  A    between atoms: C14_17  and  C15_18
REMARK    9  A    between atoms: C15_18  and  C16_19
REMARK   10  A    between atoms: C15_18  and  C17_20
REMARK                            x       y       z     vdW  Elec       q    Type
REMARK                         _______ _______ _______ _____ _____    ______ ____
ROOT
ATOM      1  C1  UNL     1      15.891  48.173  63.715  0.00  0.00    +0.000 C 
ATOM      2  C2  UNL     1      15.316  48.542  62.381  0.00  0.00    +0.000 C 
ATOM      3  C3  UNL     1      15.192  49.869  62.015  0.00  0.00    +0.000 C 
ATOM      4  C4  UNL     1      14.662  50.169  60.758  0.00  0.00    +0.000 C 
ATOM      5  C6  UNL     1      14.243  49.154  59.883  0.00  0.00    +0.000 C 
ATOM      6  C18 UNL     1      14.431  47.857  60.356  0.00  0.00    +0.000 C 
ATOM      7  F1  UNL     1      14.103  46.818  59.575  0.00  0.00    +0.000 F 
ATOM      8  N2  UNL     1      14.937  47.538  61.568  0.00  0.00    +0.000 NA
ENDROOT
BRANCH   5   9
ATOM      9  C7  UNL     1      13.688  49.444  58.505  0.00  0.00    +0.000 C 
ATOM     10  C8  UNL     1      12.541  48.536  58.003  0.00  0.00    +0.000 C 
ATOM     11  C9  UNL     1      13.045  47.896  56.720  0.00  0.00    +0.000 C 
ATOM     12  C10 UNL     1      14.001  48.928  56.118  0.00  0.00    +0.000 C 
ATOM     13  C11 UNL     1      13.255  50.004  55.328  0.00  0.00    +0.000 C 
ATOM     14  C12 UNL     1      14.719  49.519  57.349  0.00  0.00    +0.000 C 
BRANCH  14  15
ATOM     15  C13 UNL     1      16.039  48.780  57.592  0.00  0.00    +0.000 C 
ATOM     16  O2  UNL     1      16.988  49.321  58.158  0.00  0.00    +0.000 OA
BRANCH  15  17
ATOM     17  C14 UNL     1      16.088  47.328  57.134  0.00  0.00    +0.000 C 
BRANCH  17  18
ATOM     18  C15 UNL     1      17.314  46.977  56.280  0.00  0.00    +0.000 C 
ATOM     19  C16 UNL     1      17.623  45.484  56.403  0.00  0.00    +0.000 C 
ATOM     20  C17 UNL     1      17.099  47.337  54.809  0.00  0.00    +0.000 C 
ENDBRANCH  17  18
ENDBRANCH  15  17
ENDBRANCH  14  15
ENDBRANCH   5   9
BRANCH   4  21
ATOM     21  C5  UNL     1      14.502  51.596  60.408  0.00  0.00    +0.000 C 
ATOM     22  N1  UNL     1      15.395  52.400  59.910  0.00  0.00    +0.000 NA
BRANCH  22  23
ATOM     23  O1  UNL     1      16.610  51.758  59.657  0.00  0.00    +0.000 OA
ATOM     24  H   UNL     1      16.615  50.890  59.302  0.00  0.00    +0.000 HD
ENDBRANCH  22  23
ENDBRANCH   4  21
TORSDOF 6
ENDMDL
