MODEL 1
REMARK VINA RESULT:    -5.900      0.000      0.000
REMARK INTER + INTRA:          -9.239
REMARK INTER:                  -8.142
REMARK INTRA:                  -1.097
REMARK UNBOUND:                -1.097
REMARK  Name = laboratorio_evolutivo\Gen6_Mutante_3.pdb
REMARK  11 active torsions:
REMARK  status: ('A' for Active; 'I' for Inactive)
REMARK    1  A    between atoms: C1_1  and  C2_2
REMARK    2  A    between atoms: C2_2  and  C3_3
REMARK    3  A    between atoms: C6_6  and  C7_7
REMARK    4  A    between atoms: C9_10  and  C10_11
REMARK    5  A    between atoms: C12_13  and  C13_14
REMARK    6  A    between atoms: N2_15  and  O1_16
REMARK    7  A    between atoms: C14_17  and  C15_18
REMARK    8  A    between atoms: C15_18  and  C16_20
REMARK    9  A    between atoms: C16_20  and  C17_21
REMARK   10  A    between atoms: C17_21  and  C18_22
REMARK   11  A    between atoms: C17_21  and  C19_23
REMARK                            x       y       z     vdW  Elec       q    Type
REMARK                         _______ _______ _______ _____ _____    ______ ____
ROOT
ATOM      1  C3  UNL     1      21.867  19.213  21.192  0.00  0.00    +0.000 C 
ATOM      2  C4  UNL     1      20.430  19.184  21.758  0.00  0.00    +0.000 C 
ATOM      3  C5  UNL     1      19.636  20.246  20.985  0.00  0.00    +0.000 C 
ATOM      4  C6  UNL     1      20.664  20.931  20.069  0.00  0.00    +0.000 C 
ATOM      5  C14 UNL     1      21.713  19.831  19.785  0.00  0.00    +0.000 C 
ENDROOT
BRANCH   4   6
ATOM      6  C7  UNL     1      20.146  21.709  18.886  0.00  0.00    +0.000 C 
ATOM      7  C8  UNL     1      18.816  21.667  18.490  0.00  0.00    +0.000 C 
ATOM      8  N1  UNL     1      18.312  22.312  17.406  0.00  0.00    +0.000 NA
ATOM      9  C9  UNL     1      19.141  23.088  16.679  0.00  0.00    +0.000 C 
ATOM     10  C10 UNL     1      18.556  23.814  15.503  0.00  0.00    +0.000 C 
ATOM     11  C11 UNL     1      20.476  23.249  17.012  0.00  0.00    +0.000 C 
ATOM     12  C12 UNL     1      20.968  22.542  18.107  0.00  0.00    +0.000 C 
BRANCH  12  13
ATOM     13  C13 UNL     1      22.403  22.705  18.409  0.00  0.00    +0.000 C 
ATOM     14  N2  UNL     1      22.929  23.566  19.235  0.00  0.00    +0.000 NA
BRANCH  14  15
ATOM     15  O1  UNL     1      21.940  24.366  19.830  0.00  0.00    +0.000 OA
ATOM     16  H   UNL     1      21.807  25.244  19.533  0.00  0.00    +0.000 HD
ENDBRANCH  14  15
ENDBRANCH  12  13
ENDBRANCH   4   6
BRANCH   1  18
ATOM     17  C1  UNL     1      21.798  16.811  22.024  0.00  0.00    +0.000 C 
ATOM     18  C2  UNL     1      22.589  17.859  21.251  0.00  0.00    +0.000 C 
ENDBRANCH   1  18
BRANCH   5  19
ATOM     19  C15 UNL     1      21.298  18.768  18.756  0.00  0.00    +0.000 C 
ATOM     20  O2  UNL     1      20.279  18.082  18.889  0.00  0.00    +0.000 OA
BRANCH  19  21
ATOM     21  C16 UNL     1      22.226  18.540  17.570  0.00  0.00    +0.000 C 
BRANCH  21  22
ATOM     22  C17 UNL     1      23.682  18.920  17.867  0.00  0.00    +0.000 C 
ATOM     23  C18 UNL     1      24.525  17.662  18.019  0.00  0.00    +0.000 C 
ATOM     24  C19 UNL     1      24.273  19.791  16.752  0.00  0.00    +0.000 C 
ENDBRANCH  21  22
ENDBRANCH  19  21
ENDBRANCH   5  19
TORSDOF 7
ENDMDL
MODEL 2
REMARK VINA RESULT:    -5.860     27.080     29.303
REMARK INTER + INTRA:          -9.183
REMARK INTER:                  -8.092
REMARK INTRA:                  -1.091
REMARK UNBOUND:                -1.097
REMARK  Name = laboratorio_evolutivo\Gen6_Mutante_3.pdb
REMARK  11 active torsions:
REMARK  status: ('A' for Active; 'I' for Inactive)
REMARK    1  A    between atoms: C1_1  and  C2_2
REMARK    2  A    between atoms: C2_2  and  C3_3
REMARK    3  A    between atoms: C6_6  and  C7_7
REMARK    4  A    between atoms: C9_10  and  C10_11
REMARK    5  A    between atoms: C12_13  and  C13_14
REMARK    6  A    between atoms: N2_15  and  O1_16
REMARK    7  A    between atoms: C14_17  and  C15_18
REMARK    8  A    between atoms: C15_18  and  C16_20
REMARK    9  A    between atoms: C16_20  and  C17_21
REMARK   10  A    between atoms: C17_21  and  C18_22
REMARK   11  A    between atoms: C17_21  and  C19_23
REMARK                            x       y       z     vdW  Elec       q    Type
REMARK                         _______ _______ _______ _____ _____    ______ ____
ROOT
ATOM      1  C3  UNL     1       1.440   3.745  19.683  0.00  0.00    +0.000 C 
ATOM      2  C4  UNL     1       2.011   3.605  18.254  0.00  0.00    +0.000 C 
ATOM      3  C5  UNL     1       2.209   2.103  18.011  0.00  0.00    +0.000 C 
ATOM      4  C6  UNL     1       1.845   1.426  19.343  0.00  0.00    +0.000 C 
ATOM      5  C14 UNL     1       0.799   2.371  19.976  0.00  0.00    +0.000 C 
ENDROOT
BRANCH   4   6
ATOM      6  C7  UNL     1       1.518  -0.046  19.320  0.00  0.00    +0.000 C 
ATOM      7  C8  UNL     1       0.928  -0.662  18.226  0.00  0.00    +0.000 C 
ATOM      8  N1  UNL     1       0.573  -1.972  18.175  0.00  0.00    +0.000 NA
ATOM      9  C9  UNL     1       0.848  -2.753  19.240  0.00  0.00    +0.000 C 
ATOM     10  C10 UNL     1       0.472  -4.202  19.149  0.00  0.00    +0.000 C 
ATOM     11  C11 UNL     1       1.484  -2.259  20.366  0.00  0.00    +0.000 C 
ATOM     12  C12 UNL     1       1.799  -0.902  20.400  0.00  0.00    +0.000 C 
BRANCH  12  13
ATOM     13  C13 UNL     1       2.439  -0.401  21.632  0.00  0.00    +0.000 C 
ATOM     14  N2  UNL     1       1.830   0.036  22.698  0.00  0.00    +0.000 NA
BRANCH  14  15
ATOM     15  O1  UNL     1       0.435  -0.013  22.542  0.00  0.00    +0.000 OA
ATOM     16  H   UNL     1       0.062  -0.443  21.798  0.00  0.00    +0.000 HD
ENDBRANCH  14  15
ENDBRANCH  12  13
ENDBRANCH   4   6
BRANCH   1  18
ATOM     17  C1  UNL     1       1.306   6.240  20.160  0.00  0.00    +0.000 C 
ATOM     18  C2  UNL     1       0.524   4.963  19.873  0.00  0.00    +0.000 C 
ENDBRANCH   1  18
BRANCH   5  19
ATOM     19  C15 UNL     1      -0.617   2.284  19.388  0.00  0.00    +0.000 C 
ATOM     20  O2  UNL     1      -0.902   2.754  18.281  0.00  0.00    +0.000 OA
BRANCH  19  21
ATOM     21  C16 UNL     1      -1.696   1.637  20.246  0.00  0.00    +0.000 C 
BRANCH  21  22
ATOM     22  C17 UNL     1      -2.324   0.401  19.590  0.00  0.00    +0.000 C 
ATOM     23  C18 UNL     1      -2.191  -0.800  20.516  0.00  0.00    +0.000 C 
ATOM     24  C19 UNL     1      -3.805   0.628  19.268  0.00  0.00    +0.000 C 
ENDBRANCH  21  22
ENDBRANCH  19  21
ENDBRANCH   5  19
TORSDOF 7
ENDMDL
MODEL 3
REMARK VINA RESULT:    -5.808      3.109      5.355
REMARK INTER + INTRA:          -9.113
REMARK INTER:                  -8.962
REMARK INTRA:                  -0.151
REMARK UNBOUND:                -1.097
REMARK  Name = laboratorio_evolutivo\Gen6_Mutante_3.pdb
REMARK  11 active torsions:
REMARK  status: ('A' for Active; 'I' for Inactive)
REMARK    1  A    between atoms: C1_1  and  C2_2
REMARK    2  A    between atoms: C2_2  and  C3_3
REMARK    3  A    between atoms: C6_6  and  C7_7
REMARK    4  A    between atoms: C9_10  and  C10_11
REMARK    5  A    between atoms: C12_13  and  C13_14
REMARK    6  A    between atoms: N2_15  and  O1_16
REMARK    7  A    between atoms: C14_17  and  C15_18
REMARK    8  A    between atoms: C15_18  and  C16_20
REMARK    9  A    between atoms: C16_20  and  C17_21
REMARK   10  A    between atoms: C17_21  and  C18_22
REMARK   11  A    between atoms: C17_21  and  C19_23
REMARK                            x       y       z     vdW  Elec       q    Type
REMARK                         _______ _______ _______ _____ _____    ______ ____
ROOT
ATOM      1  C3  UNL     1      21.471  18.636  19.816  0.00  0.00    +0.000 C 
ATOM      2  C4  UNL     1      22.821  18.598  19.064  0.00  0.00    +0.000 C 
ATOM      3  C5  UNL     1      22.485  18.461  17.573  0.00  0.00    +0.000 C 
ATOM      4  C6  UNL     1      20.955  18.318  17.515  0.00  0.00    +0.000 C 
ATOM      5  C14 UNL     1      20.453  19.099  18.751  0.00  0.00    +0.000 C 
ENDROOT
BRANCH   4   6
ATOM      6  C7  UNL     1      20.270  18.596  16.201  0.00  0.00    +0.000 C 
ATOM      7  C8  UNL     1      20.410  19.800  15.526  0.00  0.00    +0.000 C 
ATOM      8  N1  UNL     1      19.778  20.114  14.366  0.00  0.00    +0.000 NA
ATOM      9  C9  UNL     1      18.989  19.182  13.793  0.00  0.00    +0.000 C 
ATOM     10  C10 UNL     1      18.325  19.542  12.496  0.00  0.00    +0.000 C 
ATOM     11  C11 UNL     1      18.818  17.925  14.347  0.00  0.00    +0.000 C 
ATOM     12  C12 UNL     1      19.451  17.650  15.558  0.00  0.00    +0.000 C 
BRANCH  12  13
ATOM     13  C13 UNL     1      19.213  16.316  16.141  0.00  0.00    +0.000 C 
ATOM     14  N2  UNL     1      18.096  15.882  16.654  0.00  0.00    +0.000 NA
BRANCH  14  15
ATOM     15  O1  UNL     1      17.096  16.867  16.599  0.00  0.00    +0.000 OA
ATOM     16  H   UNL     1      16.948  17.340  15.804  0.00  0.00    +0.000 HD
ENDBRANCH  14  15
ENDBRANCH  12  13
ENDBRANCH   4   6
BRANCH   1  18
ATOM     17  C1  UNL     1      22.118  18.687  22.274  0.00  0.00    +0.000 C 
ATOM     18  C2  UNL     1      21.501  19.457  21.112  0.00  0.00    +0.000 C 
ENDBRANCH   1  18
BRANCH   5  19
ATOM     19  C15 UNL     1      20.452  20.629  18.614  0.00  0.00    +0.000 C 
ATOM     20  O2  UNL     1      21.475  21.268  18.348  0.00  0.00    +0.000 OA
BRANCH  19  21
ATOM     21  C16 UNL     1      19.140  21.356  18.875  0.00  0.00    +0.000 C 
BRANCH  21  22
ATOM     22  C17 UNL     1      18.974  22.619  18.020  0.00  0.00    +0.000 C 
ATOM     23  C18 UNL     1      17.611  22.611  17.345  0.00  0.00    +0.000 C 
ATOM     24  C19 UNL     1      19.112  23.891  18.865  0.00  0.00    +0.000 C 
ENDBRANCH  21  22
ENDBRANCH  19  21
ENDBRANCH   5  19
TORSDOF 7
ENDMDL
MODEL 4
REMARK VINA RESULT:    -5.772     31.666     34.135
REMARK INTER + INTRA:          -9.063
REMARK INTER:                  -8.115
REMARK INTRA:                  -0.948
REMARK UNBOUND:                -1.097
REMARK  Name = laboratorio_evolutivo\Gen6_Mutante_3.pdb
REMARK  11 active torsions:
REMARK  status: ('A' for Active; 'I' for Inactive)
REMARK    1  A    between atoms: C1_1  and  C2_2
REMARK    2  A    between atoms: C2_2  and  C3_3
REMARK    3  A    between atoms: C6_6  and  C7_7
REMARK    4  A    between atoms: C9_10  and  C10_11
REMARK    5  A    between atoms: C12_13  and  C13_14
REMARK    6  A    between atoms: N2_15  and  O1_16
REMARK    7  A    between atoms: C14_17  and  C15_18
REMARK    8  A    between atoms: C15_18  and  C16_20
REMARK    9  A    between atoms: C16_20  and  C17_21
REMARK   10  A    between atoms: C17_21  and  C18_22
REMARK   11  A    between atoms: C17_21  and  C19_23
REMARK                            x       y       z     vdW  Elec       q    Type
REMARK                         _______ _______ _______ _____ _____    ______ ____
ROOT
ATOM      1  C3  UNL     1      16.106  -5.943   0.575  0.00  0.00    +0.000 C 
ATOM      2  C4  UNL     1      16.908  -4.668   0.920  0.00  0.00    +0.000 C 
ATOM      3  C5  UNL     1      18.050  -5.110   1.845  0.00  0.00    +0.000 C 
ATOM      4  C6  UNL     1      17.813  -6.610   2.091  0.00  0.00    +0.000 C 
ATOM      5  C14 UNL     1      17.103  -7.098   0.808  0.00  0.00    +0.000 C 
ENDROOT
BRANCH   4   6
ATOM      6  C7  UNL     1      18.972  -7.434   2.593  0.00  0.00    +0.000 C 
ATOM      7  C8  UNL     1      20.293  -7.109   2.319  0.00  0.00    +0.000 C 
ATOM      8  N1  UNL     1      21.367  -7.843   2.709  0.00  0.00    +0.000 NA
ATOM      9  C9  UNL     1      21.152  -8.947   3.454  0.00  0.00    +0.000 C 
ATOM     10  C10 UNL     1      22.355  -9.726   3.897  0.00  0.00    +0.000 C 
ATOM     11  C11 UNL     1      19.880  -9.338   3.835  0.00  0.00    +0.000 C 
ATOM     12  C12 UNL     1      18.798  -8.582   3.385  0.00  0.00    +0.000 C 
BRANCH  12  13
ATOM     13  C13 UNL     1      17.455  -9.052   3.776  0.00  0.00    +0.000 C 
ATOM     14  N2  UNL     1      16.737  -9.947   3.158  0.00  0.00    +0.000 NA
BRANCH  14  15
ATOM     15  O1  UNL     1      17.403 -10.436   2.022  0.00  0.00    +0.000 OA
ATOM     16  H   UNL     1      18.321 -10.284   1.916  0.00  0.00    +0.000 HD
ENDBRANCH  14  15
ENDBRANCH  12  13
ENDBRANCH   4   6
BRANCH   1  18
ATOM     17  C1  UNL     1      15.690  -4.592  -1.539  0.00  0.00    +0.000 C 
ATOM     18  C2  UNL     1      15.439  -5.906  -0.808  0.00  0.00    +0.000 C 
ENDBRANCH   1  18
BRANCH   5  19
ATOM     19  C15 UNL     1      18.010  -7.302  -0.415  0.00  0.00    +0.000 C 
ATOM     20  O2  UNL     1      18.785  -6.427  -0.816  0.00  0.00    +0.000 OA
BRANCH  19  21
ATOM     21  C16 UNL     1      17.886  -8.620  -1.169  0.00  0.00    +0.000 C 
BRANCH  21  22
ATOM     22  C17 UNL     1      17.036  -8.505  -2.440  0.00  0.00    +0.000 C 
ATOM     23  C18 UNL     1      17.938  -8.304  -3.650  0.00  0.00    +0.000 C 
ATOM     24  C19 UNL     1      16.176  -9.755  -2.656  0.00  0.00    +0.000 C 
ENDBRANCH  21  22
ENDBRANCH  19  21
ENDBRANCH   5  19
TORSDOF 7
ENDMDL
MODEL 5
REMARK VINA RESULT:    -5.733     31.996     34.081
REMARK INTER + INTRA:          -9.008
REMARK INTER:                  -7.928
REMARK INTRA:                  -1.081
REMARK UNBOUND:                -1.097
REMARK  Name = laboratorio_evolutivo\Gen6_Mutante_3.pdb
REMARK  11 active torsions:
REMARK  status: ('A' for Active; 'I' for Inactive)
REMARK    1  A    between atoms: C1_1  and  C2_2
REMARK    2  A    between atoms: C2_2  and  C3_3
REMARK    3  A    between atoms: C6_6  and  C7_7
REMARK    4  A    between atoms: C9_10  and  C10_11
REMARK    5  A    between atoms: C12_13  and  C13_14
REMARK    6  A    between atoms: N2_15  and  O1_16
REMARK    7  A    between atoms: C14_17  and  C15_18
REMARK    8  A    between atoms: C15_18  and  C16_20
REMARK    9  A    between atoms: C16_20  and  C17_21
REMARK   10  A    between atoms: C17_21  and  C18_22
REMARK   11  A    between atoms: C17_21  and  C19_23
REMARK                            x       y       z     vdW  Elec       q    Type
REMARK                         _______ _______ _______ _____ _____    ______ ____
ROOT
ATOM      1  C3  UNL     1      18.187 -10.678   2.559  0.00  0.00    +0.000 C 
ATOM      2  C4  UNL     1      16.889 -10.580   3.392  0.00  0.00    +0.000 C 
ATOM      3  C5  UNL     1      16.449  -9.111   3.341  0.00  0.00    +0.000 C 
ATOM      4  C6  UNL     1      17.563  -8.382   2.569  0.00  0.00    +0.000 C 
ATOM      5  C14 UNL     1      18.129  -9.458   1.614  0.00  0.00    +0.000 C 
ENDROOT
BRANCH   4   6
ATOM      6  C7  UNL     1      17.242  -7.034   1.975  0.00  0.00    +0.000 C 
ATOM      7  C8  UNL     1      15.982  -6.712   1.490  0.00  0.00    +0.000 C 
ATOM      8  N1  UNL     1      15.657  -5.530   0.905  0.00  0.00    +0.000 NA
ATOM      9  C9  UNL     1      16.605  -4.575   0.822  0.00  0.00    +0.000 C 
ATOM     10  C10 UNL     1      16.215  -3.268   0.198  0.00  0.00    +0.000 C 
ATOM     11  C11 UNL     1      17.883  -4.764   1.321  0.00  0.00    +0.000 C 
ATOM     12  C12 UNL     1      18.193  -6.002   1.880  0.00  0.00    +0.000 C 
BRANCH  12  13
ATOM     13  C13 UNL     1      19.574  -6.182   2.365  0.00  0.00    +0.000 C 
ATOM     14  N2  UNL     1      20.587  -6.625   1.673  0.00  0.00    +0.000 NA
BRANCH  14  15
ATOM     15  O1  UNL     1      20.205  -6.936   0.357  0.00  0.00    +0.000 OA
ATOM     16  H   UNL     1      20.787  -6.756  -0.354  0.00  0.00    +0.000 HD
ENDBRANCH  14  15
ENDBRANCH  12  13
ENDBRANCH   4   6
BRANCH   1  18
ATOM     17  C1  UNL     1      19.583 -12.801   2.450  0.00  0.00    +0.000 C 
ATOM     18  C2  UNL     1      18.393 -12.039   1.879  0.00  0.00    +0.000 C 
ENDBRANCH   1  18
BRANCH   5  19
ATOM     19  C15 UNL     1      17.276  -9.759   0.373  0.00  0.00    +0.000 C 
ATOM     20  O2  UNL     1      16.121 -10.190   0.454  0.00  0.00    +0.000 OA
BRANCH  19  21
ATOM     21  C16 UNL     1      17.926  -9.560  -0.991  0.00  0.00    +0.000 C 
BRANCH  21  22
ATOM     22  C17 UNL     1      17.097  -8.670  -1.925  0.00  0.00    +0.000 C 
ATOM     23  C18 UNL     1      17.592  -7.233  -1.845  0.00  0.00    +0.000 C 
ATOM     24  C19 UNL     1      17.180  -9.152  -3.378  0.00  0.00    +0.000 C 
ENDBRANCH  21  22
ENDBRANCH  19  21
ENDBRANCH   5  19
TORSDOF 7
ENDMDL
MODEL 6
REMARK VINA RESULT:    -5.684     26.694     28.619
REMARK INTER + INTRA:          -8.942
REMARK INTER:                  -8.154
REMARK INTRA:                  -0.787
REMARK UNBOUND:                -1.097
REMARK  Name = laboratorio_evolutivo\Gen6_Mutante_3.pdb
REMARK  11 active torsions:
REMARK  status: ('A' for Active; 'I' for Inactive)
REMARK    1  A    between atoms: C1_1  and  C2_2
REMARK    2  A    between atoms: C2_2  and  C3_3
REMARK    3  A    between atoms: C6_6  and  C7_7
REMARK    4  A    between atoms: C9_10  and  C10_11
REMARK    5  A    between atoms: C12_13  and  C13_14
REMARK    6  A    between atoms: N2_15  and  O1_16
REMARK    7  A    between atoms: C14_17  and  C15_18
REMARK    8  A    between atoms: C15_18  and  C16_20
REMARK    9  A    between atoms: C16_20  and  C17_21
REMARK   10  A    between atoms: C17_21  and  C18_22
REMARK   11  A    between atoms: C17_21  and  C19_23
REMARK                            x       y       z     vdW  Elec       q    Type
REMARK                         _______ _______ _______ _____ _____    ______ ____
ROOT
ATOM      1  C3  UNL     1       1.588  -2.615  20.039  0.00  0.00    +0.000 C 
ATOM      2  C4  UNL     1       0.284  -2.534  20.866  0.00  0.00    +0.000 C 
ATOM      3  C5  UNL     1       0.091  -1.055  21.228  0.00  0.00    +0.000 C 
ATOM      4  C6  UNL     1       1.343  -0.340  20.691  0.00  0.00    +0.000 C 
ATOM      5  C14 UNL     1       1.772  -1.190  19.473  0.00  0.00    +0.000 C 
ENDROOT
BRANCH   4   6
ATOM      6  C7  UNL     1       1.273   1.153  20.497  0.00  0.00    +0.000 C 
ATOM      7  C8  UNL     1       0.205   1.775  19.865  0.00  0.00    +0.000 C 
ATOM      8  N1  UNL     1       0.118   3.109  19.627  0.00  0.00    +0.000 NA
ATOM      9  C9  UNL     1       1.113   3.906  20.069  0.00  0.00    +0.000 C 
ATOM     10  C10 UNL     1       0.981   5.379  19.819  0.00  0.00    +0.000 C 
ATOM     11  C11 UNL     1       2.201   3.403  20.761  0.00  0.00    +0.000 C 
ATOM     12  C12 UNL     1       2.277   2.025  20.954  0.00  0.00    +0.000 C 
BRANCH  12  13
ATOM     13  C13 UNL     1       3.471   1.520  21.659  0.00  0.00    +0.000 C 
ATOM     14  N2  UNL     1       3.569   1.266  22.934  0.00  0.00    +0.000 NA
BRANCH  14  15
ATOM     15  O1  UNL     1       2.364   1.544  23.601  0.00  0.00    +0.000 OA
ATOM     16  H   UNL     1       1.550   1.493  23.138  0.00  0.00    +0.000 HD
ENDBRANCH  14  15
ENDBRANCH  12  13
ENDBRANCH   4   6
BRANCH   1  18
ATOM     17  C1  UNL     1       3.015  -4.195  18.648  0.00  0.00    +0.000 C 
ATOM     18  C2  UNL     1       1.601  -3.750  19.005  0.00  0.00    +0.000 C 
ENDBRANCH   1  18
BRANCH   5  19
ATOM     19  C15 UNL     1       0.941  -0.989  18.197  0.00  0.00    +0.000 C 
ATOM     20  O2  UNL     1      -0.276  -1.202  18.161  0.00  0.00    +0.000 OA
BRANCH  19  21
ATOM     21  C16 UNL     1       1.681  -0.563  16.936  0.00  0.00    +0.000 C 
BRANCH  21  22
ATOM     22  C17 UNL     1       2.012  -1.739  16.010  0.00  0.00    +0.000 C 
ATOM     23  C18 UNL     1       1.323  -1.549  14.666  0.00  0.00    +0.000 C 
ATOM     24  C19 UNL     1       3.523  -1.871  15.787  0.00  0.00    +0.000 C 
ENDBRANCH  21  22
ENDBRANCH  19  21
ENDBRANCH   5  19
TORSDOF 7
ENDMDL
MODEL 7
REMARK VINA RESULT:    -5.669     27.316     29.429
REMARK INTER + INTRA:          -8.920
REMARK INTER:                  -7.552
REMARK INTRA:                  -1.369
REMARK UNBOUND:                -1.097
REMARK  Name = laboratorio_evolutivo\Gen6_Mutante_3.pdb
REMARK  11 active torsions:
REMARK  status: ('A' for Active; 'I' for Inactive)
REMARK    1  A    between atoms: C1_1  and  C2_2
REMARK    2  A    between atoms: C2_2  and  C3_3
REMARK    3  A    between atoms: C6_6  and  C7_7
REMARK    4  A    between atoms: C9_10  and  C10_11
REMARK    5  A    between atoms: C12_13  and  C13_14
REMARK    6  A    between atoms: N2_15  and  O1_16
REMARK    7  A    between atoms: C14_17  and  C15_18
REMARK    8  A    between atoms: C15_18  and  C16_20
REMARK    9  A    between atoms: C16_20  and  C17_21
REMARK   10  A    between atoms: C17_21  and  C18_22
REMARK   11  A    between atoms: C17_21  and  C19_23
REMARK                            x       y       z     vdW  Elec       q    Type
REMARK                         _______ _______ _______ _____ _____    ______ ____
ROOT
ATOM      1  C3  UNL     1       2.892   1.817  19.441  0.00  0.00    +0.000 C 
ATOM      2  C4  UNL     1       2.273   2.854  18.477  0.00  0.00    +0.000 C 
ATOM      3  C5  UNL     1       1.514   2.055  17.409  0.00  0.00    +0.000 C 
ATOM      4  C6  UNL     1       1.805   0.579  17.726  0.00  0.00    +0.000 C 
ATOM      5  C14 UNL     1       2.023   0.555  19.256  0.00  0.00    +0.000 C 
ENDROOT
BRANCH   4   6
ATOM      6  C7  UNL     1       0.881  -0.462  17.147  0.00  0.00    +0.000 C 
ATOM      7  C8  UNL     1      -0.422  -0.174  16.764  0.00  0.00    +0.000 C 
ATOM      8  N1  UNL     1      -1.306  -1.085  16.281  0.00  0.00    +0.000 NA
ATOM      9  C9  UNL     1      -0.888  -2.357  16.114  0.00  0.00    +0.000 C 
ATOM     10  C10 UNL     1      -1.873  -3.339  15.552  0.00  0.00    +0.000 C 
ATOM     11  C11 UNL     1       0.406  -2.748  16.410  0.00  0.00    +0.000 C 
ATOM     12  C12 UNL     1       1.275  -1.796  16.940  0.00  0.00    +0.000 C 
BRANCH  12  13
ATOM     13  C13 UNL     1       2.634  -2.258  17.282  0.00  0.00    +0.000 C 
ATOM     14  N2  UNL     1       3.644  -2.367  16.465  0.00  0.00    +0.000 NA
BRANCH  14  15
ATOM     15  O1  UNL     1       3.285  -1.989  15.161  0.00  0.00    +0.000 OA
ATOM     16  H   UNL     1       2.858  -2.603  14.597  0.00  0.00    +0.000 HD
ENDBRANCH  14  15
ENDBRANCH  12  13
ENDBRANCH   4   6
BRANCH   1  18
ATOM     17  C1  UNL     1       3.848   1.360  21.753  0.00  0.00    +0.000 C 
ATOM     18  C2  UNL     1       3.042   2.319  20.885  0.00  0.00    +0.000 C 
ENDBRANCH   1  18
BRANCH   5  19
ATOM     19  C15 UNL     1       0.748   0.630  20.110  0.00  0.00    +0.000 C 
ATOM     20  O2  UNL     1      -0.059   1.561  20.011  0.00  0.00    +0.000 OA
BRANCH  19  21
ATOM     21  C16 UNL     1       0.528  -0.469  21.142  0.00  0.00    +0.000 C 
BRANCH  21  22
ATOM     22  C17 UNL     1       1.416  -1.697  20.908  0.00  0.00    +0.000 C 
ATOM     23  C18 UNL     1       2.200  -2.017  22.172  0.00  0.00    +0.000 C 
ATOM     24  C19 UNL     1       0.585  -2.921  20.506  0.00  0.00    +0.000 C 
ENDBRANCH  21  22
ENDBRANCH  19  21
ENDBRANCH   5  19
TORSDOF 7
ENDMDL
MODEL 8
REMARK VINA RESULT:    -5.597     30.335     32.433
REMARK INTER + INTRA:          -8.821
REMARK INTER:                  -7.860
REMARK INTRA:                  -0.961
REMARK UNBOUND:                -1.097
REMARK  Name = laboratorio_evolutivo\Gen6_Mutante_3.pdb
REMARK  11 active torsions:
REMARK  status: ('A' for Active; 'I' for Inactive)
REMARK    1  A    between atoms: C1_1  and  C2_2
REMARK    2  A    between atoms: C2_2  and  C3_3
REMARK    3  A    between atoms: C6_6  and  C7_7
REMARK    4  A    between atoms: C9_10  and  C10_11
REMARK    5  A    between atoms: C12_13  and  C13_14
REMARK    6  A    between atoms: N2_15  and  O1_16
REMARK    7  A    between atoms: C14_17  and  C15_18
REMARK    8  A    between atoms: C15_18  and  C16_20
REMARK    9  A    between atoms: C16_20  and  C17_21
REMARK   10  A    between atoms: C17_21  and  C18_22
REMARK   11  A    between atoms: C17_21  and  C19_23
REMARK                            x       y       z     vdW  Elec       q    Type
REMARK                         _______ _______ _______ _____ _____    ______ ____
ROOT
ATOM      1  C3  UNL     1      19.150  -7.030   2.716  0.00  0.00    +0.000 C 
ATOM      2  C4  UNL     1      18.439  -8.397   2.836  0.00  0.00    +0.000 C 
ATOM      3  C5  UNL     1      16.965  -8.153   2.484  0.00  0.00    +0.000 C 
ATOM      4  C6  UNL     1      16.846  -6.635   2.273  0.00  0.00    +0.000 C 
ATOM      5  C14 UNL     1      18.245  -6.210   1.772  0.00  0.00    +0.000 C 
ENDROOT
BRANCH   4   6
ATOM      6  C7  UNL     1      15.655  -6.120   1.506  0.00  0.00    +0.000 C 
ATOM      7  C8  UNL     1      14.832  -6.952   0.759  0.00  0.00    +0.000 C 
ATOM      8  N1  UNL     1      13.777  -6.531   0.015  0.00  0.00    +0.000 NA
ATOM      9  C9  UNL     1      13.466  -5.219   0.028  0.00  0.00    +0.000 C 
ATOM     10  C10 UNL     1      12.279  -4.781  -0.778  0.00  0.00    +0.000 C 
ATOM     11  C11 UNL     1      14.182  -4.304   0.781  0.00  0.00    +0.000 C 
ATOM     12  C12 UNL     1      15.283  -4.764   1.502  0.00  0.00    +0.000 C 
BRANCH  12  13
ATOM     13  C13 UNL     1      16.047  -3.755   2.260  0.00  0.00    +0.000 C 
ATOM     14  N2  UNL     1      15.855  -3.410   3.502  0.00  0.00    +0.000 NA
BRANCH  14  15
ATOM     15  O1  UNL     1      14.788  -4.126   4.069  0.00  0.00    +0.000 OA
ATOM     16  H   UNL     1      14.752  -5.058   3.984  0.00  0.00    +0.000 HD
ENDBRANCH  14  15
ENDBRANCH  12  13
ENDBRANCH   4   6
BRANCH   1  18
ATOM     17  C1  UNL     1      21.428  -8.033   3.237  0.00  0.00    +0.000 C 
ATOM     18  C2  UNL     1      20.626  -7.128   2.308  0.00  0.00    +0.000 C 
ENDBRANCH   1  18
BRANCH   5  19
ATOM     19  C15 UNL     1      18.547  -6.529   0.300  0.00  0.00    +0.000 C 
ATOM     20  O2  UNL     1      18.540  -7.683  -0.141  0.00  0.00    +0.000 OA
BRANCH  19  21
ATOM     21  C16 UNL     1      18.919  -5.364  -0.609  0.00  0.00    +0.000 C 
BRANCH  21  22
ATOM     22  C17 UNL     1      18.247  -5.439  -1.985  0.00  0.00    +0.000 C 
ATOM     23  C18 UNL     1      16.801  -4.975  -1.880  0.00  0.00    +0.000 C 
ATOM     24  C19 UNL     1      18.981  -4.575  -3.016  0.00  0.00    +0.000 C 
ENDBRANCH  21  22
ENDBRANCH  19  21
ENDBRANCH   5  19
TORSDOF 7
ENDMDL
MODEL 9
REMARK VINA RESULT:    -5.485     31.973     34.295
REMARK INTER + INTRA:          -8.666
REMARK INTER:                  -7.431
REMARK INTRA:                  -1.235
REMARK UNBOUND:                -1.097
REMARK  Name = laboratorio_evolutivo\Gen6_Mutante_3.pdb
REMARK  11 active torsions:
REMARK  status: ('A' for Active; 'I' for Inactive)
REMARK    1  A    between atoms: C1_1  and  C2_2
REMARK    2  A    between atoms: C2_2  and  C3_3
REMARK    3  A    between atoms: C6_6  and  C7_7
REMARK    4  A    between atoms: C9_10  and  C10_11
REMARK    5  A    between atoms: C12_13  and  C13_14
REMARK    6  A    between atoms: N2_15  and  O1_16
REMARK    7  A    between atoms: C14_17  and  C15_18
REMARK    8  A    between atoms: C15_18  and  C16_20
REMARK    9  A    between atoms: C16_20  and  C17_21
REMARK   10  A    between atoms: C17_21  and  C18_22
REMARK   11  A    between atoms: C17_21  and  C19_23
REMARK                            x       y       z     vdW  Elec       q    Type
REMARK                         _______ _______ _______ _____ _____    ______ ____
ROOT
ATOM      1  C3  UNL     1      18.639  -6.341   1.570  0.00  0.00    +0.000 C 
ATOM      2  C4  UNL     1      19.020  -6.745   0.128  0.00  0.00    +0.000 C 
ATOM      3  C5  UNL     1      18.097  -7.910  -0.255  0.00  0.00    +0.000 C 
ATOM      4  C6  UNL     1      17.282  -8.213   1.014  0.00  0.00    +0.000 C 
ATOM      5  C14 UNL     1      17.193  -6.853   1.743  0.00  0.00    +0.000 C 
ENDROOT
BRANCH   4   6
ATOM      6  C7  UNL     1      16.003  -8.996   0.859  0.00  0.00    +0.000 C 
ATOM      7  C8  UNL     1      15.246  -8.969  -0.304  0.00  0.00    +0.000 C 
ATOM      8  N1  UNL     1      14.066  -9.619  -0.475  0.00  0.00    +0.000 NA
ATOM      9  C9  UNL     1      13.605 -10.386   0.535  0.00  0.00    +0.000 C 
ATOM     10  C10 UNL     1      12.314 -11.117   0.312  0.00  0.00    +0.000 C 
ATOM     11  C11 UNL     1      14.303 -10.532   1.721  0.00  0.00    +0.000 C 
ATOM     12  C12 UNL     1      15.491  -9.821   1.877  0.00  0.00    +0.000 C 
BRANCH  12  13
ATOM     13  C13 UNL     1      16.186  -9.968   3.170  0.00  0.00    +0.000 C 
ATOM     14  N2  UNL     1      17.200 -10.749   3.420  0.00  0.00    +0.000 NA
BRANCH  14  15
ATOM     15  O1  UNL     1      17.574 -11.476   2.277  0.00  0.00    +0.000 OA
ATOM     16  H   UNL     1      16.932 -11.963   1.801  0.00  0.00    +0.000 HD
ENDBRANCH  14  15
ENDBRANCH  12  13
ENDBRANCH   4   6
BRANCH   1  18
ATOM     17  C1  UNL     1      20.319  -4.537   2.199  0.00  0.00    +0.000 C 
ATOM     18  C2  UNL     1      18.862  -4.854   1.881  0.00  0.00    +0.000 C 
ENDBRANCH   1  18
BRANCH   5  19
ATOM     19  C15 UNL     1      16.179  -5.855   1.164  0.00  0.00    +0.000 C 
ATOM     20  O2  UNL     1      16.202  -5.501  -0.019  0.00  0.00    +0.000 OA
BRANCH  19  21
ATOM     21  C16 UNL     1      15.156  -5.259   2.122  0.00  0.00    +0.000 C 
BRANCH  21  22
ATOM     22  C17 UNL     1      14.424  -6.319   2.954  0.00  0.00    +0.000 C 
ATOM     23  C18 UNL     1      13.983  -5.721   4.282  0.00  0.00    +0.000 C 
ATOM     24  C19 UNL     1      13.197  -6.864   2.214  0.00  0.00    +0.000 C 
ENDBRANCH  21  22
ENDBRANCH  19  21
ENDBRANCH   5  19
TORSDOF 7
ENDMDL
