MODEL 1
REMARK VINA RESULT:    -8.576      0.000      0.000
REMARK INTER + INTRA:         -11.631
REMARK INTER:                 -11.334
REMARK INTRA:                  -0.297
REMARK UNBOUND:                -0.297
REMARK  Name = laboratorio_evolutivo\Gen6_Mutante_6.pdb
REMARK  11 active torsions:
REMARK  status: ('A' for Active; 'I' for Inactive)
REMARK    1  A    between atoms: C1_1  and  C2_2
REMARK    2  A    between atoms: C4_4  and  C5_5
REMARK    3  A    between atoms: N1_6  and  O1_7
REMARK    4  A    between atoms: C6_8  and  C7_9
REMARK    5  A    between atoms: C10_12  and  C11_13
REMARK    6  A    between atoms: C12_14  and  C13_15
REMARK    7  A    between atoms: C13_15  and  C14_17
REMARK    8  A    between atoms: C14_17  and  C15_18
REMARK    9  A    between atoms: C15_18  and  C16_19
REMARK   10  A    between atoms: C15_18  and  C17_20
REMARK   11  A    between atoms: C18_21  and  C19_22
REMARK                            x       y       z     vdW  Elec       q    Type
REMARK                         _______ _______ _______ _____ _____    ______ ____
ROOT
ATOM      1  C1  UNL     1       5.131  65.422  69.029  0.00  0.00    +0.000 C 
ATOM      2  C2  UNL     1       4.723  66.063  67.738  0.00  0.00    +0.000 C 
ATOM      3  C3  UNL     1       4.981  65.439  66.538  0.00  0.00    +0.000 C 
ATOM      4  C4  UNL     1       4.573  66.057  65.351  0.00  0.00    +0.000 C 
ATOM      5  C6  UNL     1       3.886  67.288  65.359  0.00  0.00    +0.000 C 
ATOM      6  C18 UNL     1       3.727  67.865  66.637  0.00  0.00    +0.000 C 
ATOM      7  C19 UNL     1       3.162  69.243  66.853  0.00  0.00    +0.000 C 
ATOM      8  N2  UNL     1       4.116  67.260  67.791  0.00  0.00    +0.000 NA
ENDROOT
BRANCH   5   9
ATOM      9  C7  UNL     1       3.307  67.993  64.139  0.00  0.00    +0.000 C 
ATOM     10  C8  UNL     1       3.480  67.448  62.715  0.00  0.00    +0.000 C 
ATOM     11  C9  UNL     1       2.507  68.247  61.845  0.00  0.00    +0.000 C 
ATOM     12  C10 UNL     1       1.525  68.925  62.812  0.00  0.00    +0.000 C 
ATOM     13  C11 UNL     1       0.089  68.897  62.313  0.00  0.00    +0.000 C 
ATOM     14  C12 UNL     1       1.783  68.291  64.194  0.00  0.00    +0.000 C 
BRANCH  14  15
ATOM     15  C13 UNL     1       0.905  67.067  64.462  0.00  0.00    +0.000 C 
ATOM     16  O2  UNL     1       1.220  65.937  64.093  0.00  0.00    +0.000 OA
BRANCH  15  17
ATOM     17  C14 UNL     1      -0.431  67.303  65.146  0.00  0.00    +0.000 C 
BRANCH  17  18
ATOM     18  C15 UNL     1      -0.300  67.687  66.626  0.00  0.00    +0.000 C 
ATOM     19  C16 UNL     1      -0.582  69.181  66.794  0.00  0.00    +0.000 C 
ATOM     20  C17 UNL     1      -1.251  66.874  67.514  0.00  0.00    +0.000 C 
ENDBRANCH  17  18
ENDBRANCH  15  17
ENDBRANCH  14  15
ENDBRANCH   5   9
BRANCH   4  21
ATOM     21  C5  UNL     1       5.076  65.409  64.126  0.00  0.00    +0.000 C 
ATOM     22  N1  UNL     1       4.558  64.412  63.480  0.00  0.00    +0.000 NA
BRANCH  22  23
ATOM     23  O1  UNL     1       3.335  64.007  64.032  0.00  0.00    +0.000 OA
ATOM     24  H   UNL     1       3.233  63.133  64.355  0.00  0.00    +0.000 HD
ENDBRANCH  22  23
ENDBRANCH   4  21
TORSDOF 6
ENDMDL
MODEL 2
REMARK VINA RESULT:    -8.428      2.356      4.670
REMARK INTER + INTRA:         -11.435
REMARK INTER:                 -12.083
REMARK INTRA:                   0.648
REMARK UNBOUND:                -0.297
REMARK  Name = laboratorio_evolutivo\Gen6_Mutante_6.pdb
REMARK  11 active torsions:
REMARK  status: ('A' for Active; 'I' for Inactive)
REMARK    1  A    between atoms: C1_1  and  C2_2
REMARK    2  A    between atoms: C4_4  and  C5_5
REMARK    3  A    between atoms: N1_6  and  O1_7
REMARK    4  A    between atoms: C6_8  and  C7_9
REMARK    5  A    between atoms: C10_12  and  C11_13
REMARK    6  A    between atoms: C12_14  and  C13_15
REMARK    7  A    between atoms: C13_15  and  C14_17
REMARK    8  A    between atoms: C14_17  and  C15_18
REMARK    9  A    between atoms: C15_18  and  C16_19
REMARK   10  A    between atoms: C15_18  and  C17_20
REMARK   11  A    between atoms: C18_21  and  C19_22
REMARK                            x       y       z     vdW  Elec       q    Type
REMARK                         _______ _______ _______ _____ _____    ______ ____
ROOT
ATOM      1  C1  UNL     1       0.178  65.140  70.523  0.00  0.00    +0.000 C 
ATOM      2  C2  UNL     1       0.798  65.891  69.384  0.00  0.00    +0.000 C 
ATOM      3  C3  UNL     1       0.015  66.649  68.542  0.00  0.00    +0.000 C 
ATOM      4  C4  UNL     1       0.628  67.351  67.497  0.00  0.00    +0.000 C 
ATOM      5  C6  UNL     1       2.024  67.316  67.304  0.00  0.00    +0.000 C 
ATOM      6  C18 UNL     1       2.719  66.462  68.188  0.00  0.00    +0.000 C 
ATOM      7  C19 UNL     1       4.187  66.161  68.055  0.00  0.00    +0.000 C 
ATOM      8  N2  UNL     1       2.125  65.788  69.208  0.00  0.00    +0.000 NA
ENDROOT
BRANCH   5   9
ATOM      9  C7  UNL     1       2.800  68.120  66.270  0.00  0.00    +0.000 C 
ATOM     10  C8  UNL     1       4.327  68.034  66.138  0.00  0.00    +0.000 C 
ATOM     11  C9  UNL     1       4.667  68.725  64.816  0.00  0.00    +0.000 C 
ATOM     12  C10 UNL     1       3.349  68.826  64.033  0.00  0.00    +0.000 C 
ATOM     13  C11 UNL     1       3.517  68.526  62.551  0.00  0.00    +0.000 C 
ATOM     14  C12 UNL     1       2.334  67.954  64.798  0.00  0.00    +0.000 C 
BRANCH  14  15
ATOM     15  C13 UNL     1       2.297  66.507  64.302  0.00  0.00    +0.000 C 
ATOM     16  O2  UNL     1       1.244  65.894  64.137  0.00  0.00    +0.000 OA
BRANCH  15  17
ATOM     17  C14 UNL     1       3.629  65.809  64.086  0.00  0.00    +0.000 C 
BRANCH  17  18
ATOM     18  C15 UNL     1       3.529  64.278  64.115  0.00  0.00    +0.000 C 
ATOM     19  C16 UNL     1       4.661  63.675  63.282  0.00  0.00    +0.000 C 
ATOM     20  C17 UNL     1       3.585  63.728  65.547  0.00  0.00    +0.000 C 
ENDBRANCH  17  18
ENDBRANCH  15  17
ENDBRANCH  14  15
ENDBRANCH   5   9
BRANCH   4  21
ATOM     21  C5  UNL     1      -0.316  67.960  66.543  0.00  0.00    +0.000 C 
ATOM     22  N1  UNL     1      -0.742  69.184  66.511  0.00  0.00    +0.000 NA
BRANCH  22  23
ATOM     23  O1  UNL     1      -0.129  69.978  67.490  0.00  0.00    +0.000 OA
ATOM     24  H   UNL     1       0.303  69.576  68.217  0.00  0.00    +0.000 HD
ENDBRANCH  22  23
ENDBRANCH   4  21
TORSDOF 6
ENDMDL
MODEL 3
REMARK VINA RESULT:    -6.808     19.958     22.780
REMARK INTER + INTRA:          -9.293
REMARK INTER:                  -8.628
REMARK INTRA:                  -0.665
REMARK UNBOUND:                -0.297
REMARK  Name = laboratorio_evolutivo\Gen6_Mutante_6.pdb
REMARK  11 active torsions:
REMARK  status: ('A' for Active; 'I' for Inactive)
REMARK    1  A    between atoms: C1_1  and  C2_2
REMARK    2  A    between atoms: C4_4  and  C5_5
REMARK    3  A    between atoms: N1_6  and  O1_7
REMARK    4  A    between atoms: C6_8  and  C7_9
REMARK    5  A    between atoms: C10_12  and  C11_13
REMARK    6  A    between atoms: C12_14  and  C13_15
REMARK    7  A    between atoms: C13_15  and  C14_17
REMARK    8  A    between atoms: C14_17  and  C15_18
REMARK    9  A    between atoms: C15_18  and  C16_19
REMARK   10  A    between atoms: C15_18  and  C17_20
REMARK   11  A    between atoms: C18_21  and  C19_22
REMARK                            x       y       z     vdW  Elec       q    Type
REMARK                         _______ _______ _______ _____ _____    ______ ____
ROOT
ATOM      1  C1  UNL     1      13.774  46.048  55.163  0.00  0.00    +0.000 C 
ATOM      2  C2  UNL     1      14.027  47.328  55.900  0.00  0.00    +0.000 C 
ATOM      3  C3  UNL     1      13.002  47.964  56.564  0.00  0.00    +0.000 C 
ATOM      4  C4  UNL     1      13.277  49.150  57.256  0.00  0.00    +0.000 C 
ATOM      5  C6  UNL     1      14.577  49.690  57.306  0.00  0.00    +0.000 C 
ATOM      6  C18 UNL     1      15.536  48.989  56.544  0.00  0.00    +0.000 C 
ATOM      7  C19 UNL     1      16.943  49.481  56.337  0.00  0.00    +0.000 C 
ATOM      8  N2  UNL     1      15.272  47.833  55.879  0.00  0.00    +0.000 NA
ENDROOT
BRANCH   5   9
ATOM      9  C7  UNL     1      15.004  50.909  58.112  0.00  0.00    +0.000 C 
ATOM     10  C8  UNL     1      14.037  52.051  58.452  0.00  0.00    +0.000 C 
ATOM     11  C9  UNL     1      14.748  52.895  59.512  0.00  0.00    +0.000 C 
ATOM     12  C10 UNL     1      15.894  52.027  60.053  0.00  0.00    +0.000 C 
ATOM     13  C11 UNL     1      16.060  52.137  61.561  0.00  0.00    +0.000 C 
ATOM     14  C12 UNL     1      15.656  50.611  59.491  0.00  0.00    +0.000 C 
BRANCH  14  15
ATOM     15  C13 UNL     1      14.810  49.736  60.418  0.00  0.00    +0.000 C 
ATOM     16  O2  UNL     1      13.792  50.151  60.968  0.00  0.00    +0.000 OA
BRANCH  15  17
ATOM     17  C14 UNL     1      15.315  48.332  60.705  0.00  0.00    +0.000 C 
BRANCH  17  18
ATOM     18  C15 UNL     1      15.055  47.871  62.145  0.00  0.00    +0.000 C 
ATOM     19  C16 UNL     1      14.751  46.372  62.157  0.00  0.00    +0.000 C 
ATOM     20  C17 UNL     1      16.248  48.168  63.064  0.00  0.00    +0.000 C 
ENDBRANCH  17  18
ENDBRANCH  15  17
ENDBRANCH  14  15
ENDBRANCH   5   9
BRANCH   4  21
ATOM     21  C5  UNL     1      12.079  49.850  57.755  0.00  0.00    +0.000 C 
ATOM     22  N1  UNL     1      11.343  49.545  58.777  0.00  0.00    +0.000 NA
BRANCH  22  23
ATOM     23  O1  UNL     1      11.856  48.448  59.484  0.00  0.00    +0.000 OA
ATOM     24  H   UNL     1      11.304  47.970  60.071  0.00  0.00    +0.000 HD
ENDBRANCH  22  23
ENDBRANCH   4  21
TORSDOF 6
ENDMDL
MODEL 4
REMARK VINA RESULT:    -6.679     20.244     22.817
REMARK INTER + INTRA:          -9.123
REMARK INTER:                  -8.117
REMARK INTRA:                  -1.006
REMARK UNBOUND:                -0.297
REMARK  Name = laboratorio_evolutivo\Gen6_Mutante_6.pdb
REMARK  11 active torsions:
REMARK  status: ('A' for Active; 'I' for Inactive)
REMARK    1  A    between atoms: C1_1  and  C2_2
REMARK    2  A    between atoms: C4_4  and  C5_5
REMARK    3  A    between atoms: N1_6  and  O1_7
REMARK    4  A    between atoms: C6_8  and  C7_9
REMARK    5  A    between atoms: C10_12  and  C11_13
REMARK    6  A    between atoms: C12_14  and  C13_15
REMARK    7  A    between atoms: C13_15  and  C14_17
REMARK    8  A    between atoms: C14_17  and  C15_18
REMARK    9  A    between atoms: C15_18  and  C16_19
REMARK   10  A    between atoms: C15_18  and  C17_20
REMARK   11  A    between atoms: C18_21  and  C19_22
REMARK                            x       y       z     vdW  Elec       q    Type
REMARK                         _______ _______ _______ _____ _____    ______ ____
ROOT
ATOM      1  C1  UNL     1      13.904  44.412  62.636  0.00  0.00    +0.000 C 
ATOM      2  C2  UNL     1      13.856  45.827  62.145  0.00  0.00    +0.000 C 
ATOM      3  C3  UNL     1      14.941  46.658  62.309  0.00  0.00    +0.000 C 
ATOM      4  C4  UNL     1      14.869  47.969  61.824  0.00  0.00    +0.000 C 
ATOM      5  C6  UNL     1      13.724  48.446  61.156  0.00  0.00    +0.000 C 
ATOM      6  C18 UNL     1      12.652  47.530  61.097  0.00  0.00    +0.000 C 
ATOM      7  C19 UNL     1      11.290  47.890  60.567  0.00  0.00    +0.000 C 
ATOM      8  N2  UNL     1      12.725  46.253  61.559  0.00  0.00    +0.000 NA
ENDROOT
BRANCH   5   9
ATOM      9  C7  UNL     1      13.580  49.813  60.500  0.00  0.00    +0.000 C 
ATOM     10  C8  UNL     1      14.241  51.074  61.073  0.00  0.00    +0.000 C 
ATOM     11  C9  UNL     1      14.125  52.137  59.978  0.00  0.00    +0.000 C 
ATOM     12  C10 UNL     1      13.787  51.383  58.683  0.00  0.00    +0.000 C 
ATOM     13  C11 UNL     1      14.535  51.920  57.473  0.00  0.00    +0.000 C 
ATOM     14  C12 UNL     1      13.981  49.886  59.001  0.00  0.00    +0.000 C 
BRANCH  14  15
ATOM     15  C13 UNL     1      15.395  49.390  58.696  0.00  0.00    +0.000 C 
ATOM     16  O2  UNL     1      16.399  50.026  59.011  0.00  0.00    +0.000 OA
BRANCH  15  17
ATOM     17  C14 UNL     1      15.527  48.096  57.909  0.00  0.00    +0.000 C 
BRANCH  17  18
ATOM     18  C15 UNL     1      14.190  47.376  57.689  0.00  0.00    +0.000 C 
ATOM     19  C16 UNL     1      13.848  47.374  56.199  0.00  0.00    +0.000 C 
ATOM     20  C17 UNL     1      14.223  45.935  58.218  0.00  0.00    +0.000 C 
ENDBRANCH  17  18
ENDBRANCH  15  17
ENDBRANCH  14  15
ENDBRANCH   5   9
BRANCH   4  21
ATOM     21  C5  UNL     1      15.997  48.826  62.229  0.00  0.00    +0.000 C 
ATOM     22  N1  UNL     1      16.176  49.429  63.362  0.00  0.00    +0.000 NA
BRANCH  22  23
ATOM     23  O1  UNL     1      15.168  49.120  64.286  0.00  0.00    +0.000 OA
ATOM     24  H   UNL     1      14.580  49.787  64.578  0.00  0.00    +0.000 HD
ENDBRANCH  22  23
ENDBRANCH   4  21
TORSDOF 6
ENDMDL
MODEL 5
REMARK VINA RESULT:    -6.585     20.087     22.763
REMARK INTER + INTRA:          -8.999
REMARK INTER:                  -7.944
REMARK INTRA:                  -1.055
REMARK UNBOUND:                -0.297
REMARK  Name = laboratorio_evolutivo\Gen6_Mutante_6.pdb
REMARK  11 active torsions:
REMARK  status: ('A' for Active; 'I' for Inactive)
REMARK    1  A    between atoms: C1_1  and  C2_2
REMARK    2  A    between atoms: C4_4  and  C5_5
REMARK    3  A    between atoms: N1_6  and  O1_7
REMARK    4  A    between atoms: C6_8  and  C7_9
REMARK    5  A    between atoms: C10_12  and  C11_13
REMARK    6  A    between atoms: C12_14  and  C13_15
REMARK    7  A    between atoms: C13_15  and  C14_17
REMARK    8  A    between atoms: C14_17  and  C15_18
REMARK    9  A    between atoms: C15_18  and  C16_19
REMARK   10  A    between atoms: C15_18  and  C17_20
REMARK   11  A    between atoms: C18_21  and  C19_22
REMARK                            x       y       z     vdW  Elec       q    Type
REMARK                         _______ _______ _______ _____ _____    ______ ____
ROOT
ATOM      1  C1  UNL     1      16.291  53.149  60.966  0.00  0.00    +0.000 C 
ATOM      2  C2  UNL     1      15.558  51.846  61.065  0.00  0.00    +0.000 C 
ATOM      3  C3  UNL     1      14.312  51.702  60.497  0.00  0.00    +0.000 C 
ATOM      4  C4  UNL     1      13.662  50.466  60.594  0.00  0.00    +0.000 C 
ATOM      5  C6  UNL     1      14.263  49.366  61.238  0.00  0.00    +0.000 C 
ATOM      6  C18 UNL     1      15.513  49.642  61.833  0.00  0.00    +0.000 C 
ATOM      7  C19 UNL     1      16.248  48.654  62.698  0.00  0.00    +0.000 C 
ATOM      8  N2  UNL     1      16.148  50.839  61.731  0.00  0.00    +0.000 NA
ENDROOT
BRANCH   5   9
ATOM      9  C7  UNL     1      13.693  47.956  61.308  0.00  0.00    +0.000 C 
ATOM     10  C8  UNL     1      12.188  47.670  61.203  0.00  0.00    +0.000 C 
ATOM     11  C9  UNL     1      12.067  46.158  61.001  0.00  0.00    +0.000 C 
ATOM     12  C10 UNL     1      13.463  45.667  60.588  0.00  0.00    +0.000 C 
ATOM     13  C11 UNL     1      13.421  44.622  59.485  0.00  0.00    +0.000 C 
ATOM     14  C12 UNL     1      14.291  46.936  60.300  0.00  0.00    +0.000 C 
BRANCH  14  15
ATOM     15  C13 UNL     1      14.221  47.374  58.836  0.00  0.00    +0.000 C 
ATOM     16  O2  UNL     1      13.155  47.582  58.261  0.00  0.00    +0.000 OA
BRANCH  15  17
ATOM     17  C14 UNL     1      15.533  47.475  58.075  0.00  0.00    +0.000 C 
BRANCH  17  18
ATOM     18  C15 UNL     1      15.721  48.818  57.357  0.00  0.00    +0.000 C 
ATOM     19  C16 UNL     1      16.625  49.724  58.195  0.00  0.00    +0.000 C 
ATOM     20  C17 UNL     1      16.318  48.639  55.955  0.00  0.00    +0.000 C 
ENDBRANCH  17  18
ENDBRANCH  15  17
ENDBRANCH  14  15
ENDBRANCH   5   9
BRANCH   4  21
ATOM     21  C5  UNL     1      12.262  50.482  60.135  0.00  0.00    +0.000 C 
ATOM     22  N1  UNL     1      11.820  50.586  58.921  0.00  0.00    +0.000 NA
BRANCH  22  23
ATOM     23  O1  UNL     1      12.862  50.609  57.983  0.00  0.00    +0.000 OA
ATOM     24  H   UNL     1      13.732  50.826  58.255  0.00  0.00    +0.000 HD
ENDBRANCH  22  23
ENDBRANCH   4  21
TORSDOF 6
ENDMDL
MODEL 6
REMARK VINA RESULT:    -6.435     20.140     22.749
REMARK INTER + INTRA:          -8.801
REMARK INTER:                  -7.572
REMARK INTRA:                  -1.229
REMARK UNBOUND:                -0.297
REMARK  Name = laboratorio_evolutivo\Gen6_Mutante_6.pdb
REMARK  11 active torsions:
REMARK  status: ('A' for Active; 'I' for Inactive)
REMARK    1  A    between atoms: C1_1  and  C2_2
REMARK    2  A    between atoms: C4_4  and  C5_5
REMARK    3  A    between atoms: N1_6  and  O1_7
REMARK    4  A    between atoms: C6_8  and  C7_9
REMARK    5  A    between atoms: C10_12  and  C11_13
REMARK    6  A    between atoms: C12_14  and  C13_15
REMARK    7  A    between atoms: C13_15  and  C14_17
REMARK    8  A    between atoms: C14_17  and  C15_18
REMARK    9  A    between atoms: C15_18  and  C16_19
REMARK   10  A    between atoms: C15_18  and  C17_20
REMARK   11  A    between atoms: C18_21  and  C19_22
REMARK                            x       y       z     vdW  Elec       q    Type
REMARK                         _______ _______ _______ _____ _____    ______ ____
ROOT
ATOM      1  C1  UNL     1      16.301  48.625  62.688  0.00  0.00    +0.000 C 
ATOM      2  C2  UNL     1      15.282  48.745  61.596  0.00  0.00    +0.000 C 
ATOM      3  C3  UNL     1      14.916  49.984  61.119  0.00  0.00    +0.000 C 
ATOM      4  C4  UNL     1      13.973  50.060  60.087  0.00  0.00    +0.000 C 
ATOM      5  C6  UNL     1      13.410  48.902  59.514  0.00  0.00    +0.000 C 
ATOM      6  C18 UNL     1      13.813  47.691  60.119  0.00  0.00    +0.000 C 
ATOM      7  C19 UNL     1      13.216  46.357  59.765  0.00  0.00    +0.000 C 
ATOM      8  N2  UNL     1      14.735  47.616  61.115  0.00  0.00    +0.000 NA
ENDROOT
BRANCH   5   9
ATOM      9  C7  UNL     1      12.461  48.867  58.324  0.00  0.00    +0.000 C 
ATOM     10  C8  UNL     1      11.557  50.052  57.958  0.00  0.00    +0.000 C 
ATOM     11  C9  UNL     1      11.018  49.746  56.559  0.00  0.00    +0.000 C 
ATOM     12  C10 UNL     1      11.914  48.635  55.989  0.00  0.00    +0.000 C 
ATOM     13  C11 UNL     1      12.251  48.842  54.521  0.00  0.00    +0.000 C 
ATOM     14  C12 UNL     1      13.108  48.514  56.957  0.00  0.00    +0.000 C 
BRANCH  14  15
ATOM     15  C13 UNL     1      14.288  49.405  56.562  0.00  0.00    +0.000 C 
ATOM     16  O2  UNL     1      14.196  50.629  56.499  0.00  0.00    +0.000 OA
BRANCH  15  17
ATOM     17  C14 UNL     1      15.584  48.714  56.171  0.00  0.00    +0.000 C 
BRANCH  17  18
ATOM     18  C15 UNL     1      16.177  47.849  57.291  0.00  0.00    +0.000 C 
ATOM     19  C16 UNL     1      17.105  46.794  56.686  0.00  0.00    +0.000 C 
ATOM     20  C17 UNL     1      16.944  48.690  58.319  0.00  0.00    +0.000 C 
ENDBRANCH  17  18
ENDBRANCH  15  17
ENDBRANCH  14  15
ENDBRANCH   5   9
BRANCH   4  21
ATOM     21  C5  UNL     1      13.506  51.427  59.794  0.00  0.00    +0.000 C 
ATOM     22  N1  UNL     1      14.155  52.387  59.214  0.00  0.00    +0.000 NA
BRANCH  22  23
ATOM     23  O1  UNL     1      15.421  51.973  58.776  0.00  0.00    +0.000 OA
ATOM     24  H   UNL     1      15.555  51.748  57.877  0.00  0.00    +0.000 HD
ENDBRANCH  22  23
ENDBRANCH   4  21
TORSDOF 6
ENDMDL
MODEL 7
REMARK VINA RESULT:    -6.311     20.162     22.070
REMARK INTER + INTRA:          -8.637
REMARK INTER:                  -7.748
REMARK INTRA:                  -0.889
REMARK UNBOUND:                -0.297
REMARK  Name = laboratorio_evolutivo\Gen6_Mutante_6.pdb
REMARK  11 active torsions:
REMARK  status: ('A' for Active; 'I' for Inactive)
REMARK    1  A    between atoms: C1_1  and  C2_2
REMARK    2  A    between atoms: C4_4  and  C5_5
REMARK    3  A    between atoms: N1_6  and  O1_7
REMARK    4  A    between atoms: C6_8  and  C7_9
REMARK    5  A    between atoms: C10_12  and  C11_13
REMARK    6  A    between atoms: C12_14  and  C13_15
REMARK    7  A    between atoms: C13_15  and  C14_17
REMARK    8  A    between atoms: C14_17  and  C15_18
REMARK    9  A    between atoms: C15_18  and  C16_19
REMARK   10  A    between atoms: C15_18  and  C17_20
REMARK   11  A    between atoms: C18_21  and  C19_22
REMARK                            x       y       z     vdW  Elec       q    Type
REMARK                         _______ _______ _______ _____ _____    ______ ____
ROOT
ATOM      1  C1  UNL     1      15.908  49.500  62.697  0.00  0.00    +0.000 C 
ATOM      2  C2  UNL     1      15.413  49.598  61.287  0.00  0.00    +0.000 C 
ATOM      3  C3  UNL     1      15.516  48.520  60.436  0.00  0.00    +0.000 C 
ATOM      4  C4  UNL     1      15.029  48.640  59.129  0.00  0.00    +0.000 C 
ATOM      5  C6  UNL     1      14.418  49.826  58.675  0.00  0.00    +0.000 C 
ATOM      6  C18 UNL     1      14.419  50.884  59.611  0.00  0.00    +0.000 C 
ATOM      7  C19 UNL     1      13.959  52.277  59.277  0.00  0.00    +0.000 C 
ATOM      8  N2  UNL     1      14.884  50.765  60.883  0.00  0.00    +0.000 NA
ENDROOT
BRANCH   5   9
ATOM      9  C7  UNL     1      13.764  50.027  57.316  0.00  0.00    +0.000 C 
ATOM     10  C8  UNL     1      14.372  49.473  56.020  0.00  0.00    +0.000 C 
ATOM     11  C9  UNL     1      13.278  49.608  54.958  0.00  0.00    +0.000 C 
ATOM     12  C10 UNL     1      11.966  49.841  55.722  0.00  0.00    +0.000 C 
ATOM     13  C11 UNL     1      10.793  49.075  55.129  0.00  0.00    +0.000 C 
ATOM     14  C12 UNL     1      12.284  49.567  57.205  0.00  0.00    +0.000 C 
BRANCH  14  15
ATOM     15  C13 UNL     1      12.039  48.111  57.609  0.00  0.00    +0.000 C 
ATOM     16  O2  UNL     1      12.360  47.166  56.892  0.00  0.00    +0.000 OA
BRANCH  15  17
ATOM     17  C14 UNL     1      11.305  47.864  58.916  0.00  0.00    +0.000 C 
BRANCH  17  18
ATOM     18  C15 UNL     1      10.921  49.152  59.655  0.00  0.00    +0.000 C 
ATOM     19  C16 UNL     1       9.398  49.272  59.720  0.00  0.00    +0.000 C 
ATOM     20  C17 UNL     1      11.507  49.195  61.073  0.00  0.00    +0.000 C 
ENDBRANCH  17  18
ENDBRANCH  15  17
ENDBRANCH  14  15
ENDBRANCH   5   9
BRANCH   4  21
ATOM     21  C5  UNL     1      15.370  47.507  58.250  0.00  0.00    +0.000 C 
ATOM     22  N1  UNL     1      16.425  47.358  57.512  0.00  0.00    +0.000 NA
BRANCH  22  23
ATOM     23  O1  UNL     1      17.337  48.410  57.682  0.00  0.00    +0.000 OA
ATOM     24  H   UNL     1      18.052  48.511  57.085  0.00  0.00    +0.000 HD
ENDBRANCH  22  23
ENDBRANCH   4  21
TORSDOF 6
ENDMDL
MODEL 8
REMARK VINA RESULT:    -6.244     20.151     23.027
REMARK INTER + INTRA:          -8.549
REMARK INTER:                  -7.567
REMARK INTRA:                  -0.982
REMARK UNBOUND:                -0.297
REMARK  Name = laboratorio_evolutivo\Gen6_Mutante_6.pdb
REMARK  11 active torsions:
REMARK  status: ('A' for Active; 'I' for Inactive)
REMARK    1  A    between atoms: C1_1  and  C2_2
REMARK    2  A    between atoms: C4_4  and  C5_5
REMARK    3  A    between atoms: N1_6  and  O1_7
REMARK    4  A    between atoms: C6_8  and  C7_9
REMARK    5  A    between atoms: C10_12  and  C11_13
REMARK    6  A    between atoms: C12_14  and  C13_15
REMARK    7  A    between atoms: C13_15  and  C14_17
REMARK    8  A    between atoms: C14_17  and  C15_18
REMARK    9  A    between atoms: C15_18  and  C16_19
REMARK   10  A    between atoms: C15_18  and  C17_20
REMARK   11  A    between atoms: C18_21  and  C19_22
REMARK                            x       y       z     vdW  Elec       q    Type
REMARK                         _______ _______ _______ _____ _____    ______ ____
ROOT
ATOM      1  C1  UNL     1      11.601  48.828  54.812  0.00  0.00    +0.000 C 
ATOM      2  C2  UNL     1      12.102  48.533  56.193  0.00  0.00    +0.000 C 
ATOM      3  C3  UNL     1      13.023  47.531  56.399  0.00  0.00    +0.000 C 
ATOM      4  C4  UNL     1      13.483  47.292  57.700  0.00  0.00    +0.000 C 
ATOM      5  C6  UNL     1      13.042  48.065  58.792  0.00  0.00    +0.000 C 
ATOM      6  C18 UNL     1      12.056  49.024  58.474  0.00  0.00    +0.000 C 
ATOM      7  C19 UNL     1      11.341  49.844  59.514  0.00  0.00    +0.000 C 
ATOM      8  N2  UNL     1      11.616  49.262  57.210  0.00  0.00    +0.000 NA
ENDROOT
BRANCH   5   9
ATOM      9  C7  UNL     1      13.554  47.960  60.222  0.00  0.00    +0.000 C 
ATOM     10  C8  UNL     1      14.323  46.734  60.733  0.00  0.00    +0.000 C 
ATOM     11  C9  UNL     1      14.919  47.150  62.079  0.00  0.00    +0.000 C 
ATOM     12  C10 UNL     1      14.839  48.683  62.128  0.00  0.00    +0.000 C 
ATOM     13  C11 UNL     1      16.084  49.322  62.723  0.00  0.00    +0.000 C 
ATOM     14  C12 UNL     1      14.450  49.133  60.706  0.00  0.00    +0.000 C 
BRANCH  14  15
ATOM     15  C13 UNL     1      15.662  49.415  59.817  0.00  0.00    +0.000 C 
ATOM     16  O2  UNL     1      16.477  48.543  59.518  0.00  0.00    +0.000 OA
BRANCH  15  17
ATOM     17  C14 UNL     1      15.878  50.850  59.364  0.00  0.00    +0.000 C 
BRANCH  17  18
ATOM     18  C15 UNL     1      15.162  51.882  60.244  0.00  0.00    +0.000 C 
ATOM     19  C16 UNL     1      16.191  52.828  60.865  0.00  0.00    +0.000 C 
ATOM     20  C17 UNL     1      14.125  52.689  59.451  0.00  0.00    +0.000 C 
ENDBRANCH  17  18
ENDBRANCH  15  17
ENDBRANCH  14  15
ENDBRANCH   5   9
BRANCH   4  21
ATOM     21  C5  UNL     1      14.305  46.075  57.837  0.00  0.00    +0.000 C 
ATOM     22  N1  UNL     1      15.551  45.913  57.520  0.00  0.00    +0.000 NA
BRANCH  22  23
ATOM     23  O1  UNL     1      16.137  47.103  57.068  0.00  0.00    +0.000 OA
ATOM     24  H   UNL     1      16.419  47.750  57.684  0.00  0.00    +0.000 HD
ENDBRANCH  22  23
ENDBRANCH   4  21
TORSDOF 6
ENDMDL
MODEL 9
REMARK VINA RESULT:    -6.166     19.482     21.766
REMARK INTER + INTRA:          -8.446
REMARK INTER:                  -7.245
REMARK INTRA:                  -1.201
REMARK UNBOUND:                -0.297
REMARK  Name = laboratorio_evolutivo\Gen6_Mutante_6.pdb
REMARK  11 active torsions:
REMARK  status: ('A' for Active; 'I' for Inactive)
REMARK    1  A    between atoms: C1_1  and  C2_2
REMARK    2  A    between atoms: C4_4  and  C5_5
REMARK    3  A    between atoms: N1_6  and  O1_7
REMARK    4  A    between atoms: C6_8  and  C7_9
REMARK    5  A    between atoms: C10_12  and  C11_13
REMARK    6  A    between atoms: C12_14  and  C13_15
REMARK    7  A    between atoms: C13_15  and  C14_17
REMARK    8  A    between atoms: C14_17  and  C15_18
REMARK    9  A    between atoms: C15_18  and  C16_19
REMARK   10  A    between atoms: C15_18  and  C17_20
REMARK   11  A    between atoms: C18_21  and  C19_22
REMARK                            x       y       z     vdW  Elec       q    Type
REMARK                         _______ _______ _______ _____ _____    ______ ____
ROOT
ATOM      1  C1  UNL     1       5.932  41.836  61.112  0.00  0.00    +0.000 C 
ATOM      2  C2  UNL     1       6.308  43.149  61.730  0.00  0.00    +0.000 C 
ATOM      3  C3  UNL     1       6.052  44.328  61.067  0.00  0.00    +0.000 C 
ATOM      4  C4  UNL     1       6.401  45.538  61.679  0.00  0.00    +0.000 C 
ATOM      5  C6  UNL     1       6.986  45.574  62.962  0.00  0.00    +0.000 C 
ATOM      6  C18 UNL     1       7.256  44.306  63.521  0.00  0.00    +0.000 C 
ATOM      7  C19 UNL     1       8.014  44.120  64.807  0.00  0.00    +0.000 C 
ATOM      8  N2  UNL     1       6.908  43.132  62.931  0.00  0.00    +0.000 NA
ENDROOT
BRANCH   5   9
ATOM      9  C7  UNL     1       7.306  46.831  63.759  0.00  0.00    +0.000 C 
ATOM     10  C8  UNL     1       7.535  48.193  63.090  0.00  0.00    +0.000 C 
ATOM     11  C9  UNL     1       7.509  49.220  64.224  0.00  0.00    +0.000 C 
ATOM     12  C10 UNL     1       6.874  48.512  65.430  0.00  0.00    +0.000 C 
ATOM     13  C11 UNL     1       5.908  49.402  66.198  0.00  0.00    +0.000 C 
ATOM     14  C12 UNL     1       6.303  47.186  64.890  0.00  0.00    +0.000 C 
BRANCH  14  15
ATOM     15  C13 UNL     1       4.847  47.304  64.435  0.00  0.00    +0.000 C 
ATOM     16  O2  UNL     1       4.505  48.033  63.505  0.00  0.00    +0.000 OA
BRANCH  15  17
ATOM     17  C14 UNL     1       3.802  46.536  65.227  0.00  0.00    +0.000 C 
BRANCH  17  18
ATOM     18  C15 UNL     1       3.996  45.015  65.180  0.00  0.00    +0.000 C 
ATOM     19  C16 UNL     1       3.216  44.363  66.322  0.00  0.00    +0.000 C 
ATOM     20  C17 UNL     1       3.547  44.422  63.837  0.00  0.00    +0.000 C 
ENDBRANCH  17  18
ENDBRANCH  15  17
ENDBRANCH  14  15
ENDBRANCH   5   9
BRANCH   4  21
ATOM     21  C5  UNL     1       6.272  46.718  60.805  0.00  0.00    +0.000 C 
ATOM     22  N1  UNL     1       5.186  47.267  60.361  0.00  0.00    +0.000 NA
BRANCH  22  23
ATOM     23  O1  UNL     1       4.037  46.652  60.877  0.00  0.00    +0.000 OA
ATOM     24  H   UNL     1       3.922  45.727  60.789  0.00  0.00    +0.000 HD
ENDBRANCH  22  23
ENDBRANCH   4  21
TORSDOF 6
ENDMDL
