MODEL 1
REMARK VINA RESULT:    -5.913      0.000      0.000
REMARK INTER + INTRA:          -8.995
REMARK INTER:                  -7.814
REMARK INTRA:                  -1.180
REMARK UNBOUND:                -1.180
REMARK  Name = laboratorio_evolutivo\Gen6_Mutante_5.pdb
REMARK  10 active torsions:
REMARK  status: ('A' for Active; 'I' for Inactive)
REMARK    1  A    between atoms: C1_1  and  C2_2
REMARK    2  A    between atoms: C4_4  and  C5_5
REMARK    3  A    between atoms: N1_6  and  O1_7
REMARK    4  A    between atoms: C6_8  and  C7_9
REMARK    5  A    between atoms: C10_12  and  C11_13
REMARK    6  A    between atoms: C12_14  and  C13_15
REMARK    7  A    between atoms: C13_15  and  C14_17
REMARK    8  A    between atoms: C14_17  and  C15_18
REMARK    9  A    between atoms: C15_18  and  C16_19
REMARK   10  A    between atoms: C15_18  and  C17_20
REMARK                            x       y       z     vdW  Elec       q    Type
REMARK                         _______ _______ _______ _____ _____    ______ ____
ROOT
ATOM      1  C1  UNL     1       2.376  -2.534  22.471  0.00  0.00    +0.000 C 
ATOM      2  C2  UNL     1       2.082  -1.957  21.119  0.00  0.00    +0.000 C 
ATOM      3  C3  UNL     1       1.928  -2.785  20.022  0.00  0.00    +0.000 C 
ATOM      4  C4  UNL     1       1.643  -2.206  18.783  0.00  0.00    +0.000 C 
ATOM      5  C6  UNL     1       1.532  -0.815  18.637  0.00  0.00    +0.000 C 
ATOM      6  C18 UNL     1       1.693  -0.086  19.813  0.00  0.00    +0.000 C 
ATOM      7  F1  UNL     1       1.561   1.248  19.785  0.00  0.00    +0.000 F 
ATOM      8  N2  UNL     1       1.973  -0.618  21.025  0.00  0.00    +0.000 NA
ENDROOT
BRANCH   5   9
ATOM      9  C7  UNL     1       1.200  -0.158  17.314  0.00  0.00    +0.000 C 
ATOM     10  C8  UNL     1       1.950   1.149  16.969  0.00  0.00    +0.000 C 
ATOM     11  C9  UNL     1       0.877   2.210  16.780  0.00  0.00    +0.000 C 
ATOM     12  C10 UNL     1      -0.338   1.445  16.254  0.00  0.00    +0.000 C 
ATOM     13  C11 UNL     1      -0.256   1.210  14.744  0.00  0.00    +0.000 C 
ATOM     14  C12 UNL     1      -0.301   0.118  17.040  0.00  0.00    +0.000 C 
BRANCH  14  15
ATOM     15  C13 UNL     1      -1.192   0.218  18.282  0.00  0.00    +0.000 C 
ATOM     16  O2  UNL     1      -1.417   1.296  18.831  0.00  0.00    +0.000 OA
BRANCH  15  17
ATOM     17  C14 UNL     1      -1.818  -1.084  18.764  0.00  0.00    +0.000 C 
BRANCH  17  18
ATOM     18  C15 UNL     1      -2.278  -1.059  20.228  0.00  0.00    +0.000 C 
ATOM     19  C16 UNL     1      -3.804  -1.153  20.295  0.00  0.00    +0.000 C 
ATOM     20  C17 UNL     1      -1.657  -2.201  21.035  0.00  0.00    +0.000 C 
ENDBRANCH  17  18
ENDBRANCH  15  17
ENDBRANCH  14  15
ENDBRANCH   5   9
BRANCH   4  21
ATOM     21  C5  UNL     1       1.524  -3.111  17.620  0.00  0.00    +0.000 C 
ATOM     22  N1  UNL     1       2.478  -3.572  16.867  0.00  0.00    +0.000 NA
BRANCH  22  23
ATOM     23  O1  UNL     1       3.743  -3.163  17.299  0.00  0.00    +0.000 OA
ATOM     24  H   UNL     1       4.354  -2.804  16.685  0.00  0.00    +0.000 HD
ENDBRANCH  22  23
ENDBRANCH   4  21
TORSDOF 6
ENDMDL
MODEL 2
REMARK VINA RESULT:    -5.866     27.651     29.541
REMARK INTER + INTRA:          -8.932
REMARK INTER:                  -8.209
REMARK INTRA:                  -0.723
REMARK UNBOUND:                -1.180
REMARK  Name = laboratorio_evolutivo\Gen6_Mutante_5.pdb
REMARK  10 active torsions:
REMARK  status: ('A' for Active; 'I' for Inactive)
REMARK    1  A    between atoms: C1_1  and  C2_2
REMARK    2  A    between atoms: C4_4  and  C5_5
REMARK    3  A    between atoms: N1_6  and  O1_7
REMARK    4  A    between atoms: C6_8  and  C7_9
REMARK    5  A    between atoms: C10_12  and  C11_13
REMARK    6  A    between atoms: C12_14  and  C13_15
REMARK    7  A    between atoms: C13_15  and  C14_17
REMARK    8  A    between atoms: C14_17  and  C15_18
REMARK    9  A    between atoms: C15_18  and  C16_19
REMARK   10  A    between atoms: C15_18  and  C17_20
REMARK                            x       y       z     vdW  Elec       q    Type
REMARK                         _______ _______ _______ _____ _____    ______ ____
ROOT
ATOM      1  C1  UNL     1      17.815  22.798  16.046  0.00  0.00    +0.000 C 
ATOM      2  C2  UNL     1      18.525  21.828  16.941  0.00  0.00    +0.000 C 
ATOM      3  C3  UNL     1      19.137  20.706  16.414  0.00  0.00    +0.000 C 
ATOM      4  C4  UNL     1      19.798  19.834  17.282  0.00  0.00    +0.000 C 
ATOM      5  C6  UNL     1      19.833  20.072  18.665  0.00  0.00    +0.000 C 
ATOM      6  C18 UNL     1      19.195  21.240  19.077  0.00  0.00    +0.000 C 
ATOM      7  F1  UNL     1      19.212  21.578  20.374  0.00  0.00    +0.000 F 
ATOM      8  N2  UNL     1      18.545  22.099  18.260  0.00  0.00    +0.000 NA
ENDROOT
BRANCH   5   9
ATOM      9  C7  UNL     1      20.561  19.161  19.630  0.00  0.00    +0.000 C 
ATOM     10  C8  UNL     1      19.990  19.054  21.063  0.00  0.00    +0.000 C 
ATOM     11  C9  UNL     1      21.108  19.501  21.993  0.00  0.00    +0.000 C 
ATOM     12  C10 UNL     1      22.397  19.110  21.269  0.00  0.00    +0.000 C 
ATOM     13  C11 UNL     1      22.754  17.639  21.493  0.00  0.00    +0.000 C 
ATOM     14  C12 UNL     1      22.085  19.401  19.787  0.00  0.00    +0.000 C 
BRANCH  14  15
ATOM     15  C13 UNL     1      22.574  20.804  19.413  0.00  0.00    +0.000 C 
ATOM     16  O2  UNL     1      22.095  21.814  19.927  0.00  0.00    +0.000 OA
BRANCH  15  17
ATOM     17  C14 UNL     1      23.717  20.869  18.408  0.00  0.00    +0.000 C 
BRANCH  17  18
ATOM     18  C15 UNL     1      23.591  19.873  17.246  0.00  0.00    +0.000 C 
ATOM     19  C16 UNL     1      23.416  20.630  15.928  0.00  0.00    +0.000 C 
ATOM     20  C17 UNL     1      24.814  18.957  17.153  0.00  0.00    +0.000 C 
ENDBRANCH  17  18
ENDBRANCH  15  17
ENDBRANCH  14  15
ENDBRANCH   5   9
BRANCH   4  21
ATOM     21  C5  UNL     1      20.406  18.621  16.698  0.00  0.00    +0.000 C 
ATOM     22  N1  UNL     1      19.851  17.460  16.512  0.00  0.00    +0.000 NA
BRANCH  22  23
ATOM     23  O1  UNL     1      18.504  17.447  16.887  0.00  0.00    +0.000 OA
ATOM     24  H   UNL     1      18.161  16.723  17.373  0.00  0.00    +0.000 HD
ENDBRANCH  22  23
ENDBRANCH   4  21
TORSDOF 6
ENDMDL
MODEL 3
REMARK VINA RESULT:    -5.808     23.396     25.593
REMARK INTER + INTRA:          -8.855
REMARK INTER:                  -7.870
REMARK INTRA:                  -0.986
REMARK UNBOUND:                -1.180
REMARK  Name = laboratorio_evolutivo\Gen6_Mutante_5.pdb
REMARK  10 active torsions:
REMARK  status: ('A' for Active; 'I' for Inactive)
REMARK    1  A    between atoms: C1_1  and  C2_2
REMARK    2  A    between atoms: C4_4  and  C5_5
REMARK    3  A    between atoms: N1_6  and  O1_7
REMARK    4  A    between atoms: C6_8  and  C7_9
REMARK    5  A    between atoms: C10_12  and  C11_13
REMARK    6  A    between atoms: C12_14  and  C13_15
REMARK    7  A    between atoms: C13_15  and  C14_17
REMARK    8  A    between atoms: C14_17  and  C15_18
REMARK    9  A    between atoms: C15_18  and  C16_19
REMARK   10  A    between atoms: C15_18  and  C17_20
REMARK                            x       y       z     vdW  Elec       q    Type
REMARK                         _______ _______ _______ _____ _____    ______ ____
ROOT
ATOM      1  C1  UNL     1      17.444 -10.558  -0.759  0.00  0.00    +0.000 C 
ATOM      2  C2  UNL     1      17.300  -9.304   0.049  0.00  0.00    +0.000 C 
ATOM      3  C3  UNL     1      18.335  -8.868   0.856  0.00  0.00    +0.000 C 
ATOM      4  C4  UNL     1      18.164  -7.689   1.585  0.00  0.00    +0.000 C 
ATOM      5  C6  UNL     1      16.965  -6.962   1.522  0.00  0.00    +0.000 C 
ATOM      6  C18 UNL     1      16.002  -7.490   0.665  0.00  0.00    +0.000 C 
ATOM      7  F1  UNL     1      14.839  -6.843   0.503  0.00  0.00    +0.000 F 
ATOM      8  N2  UNL     1      16.138  -8.631  -0.048  0.00  0.00    +0.000 NA
ENDROOT
BRANCH   5   9
ATOM      9  C7  UNL     1      16.756  -5.667   2.278  0.00  0.00    +0.000 C 
ATOM     10  C8  UNL     1      15.386  -5.467   2.965  0.00  0.00    +0.000 C 
ATOM     11  C9  UNL     1      14.796  -4.202   2.362  0.00  0.00    +0.000 C 
ATOM     12  C10 UNL     1      16.008  -3.338   2.007  0.00  0.00    +0.000 C 
ATOM     13  C11 UNL     1      16.527  -2.559   3.217  0.00  0.00    +0.000 C 
ATOM     14  C12 UNL     1      17.046  -4.359   1.498  0.00  0.00    +0.000 C 
BRANCH  14  15
ATOM     15  C13 UNL     1      16.970  -4.469  -0.028  0.00  0.00    +0.000 C 
ATOM     16  O2  UNL     1      15.924  -4.258  -0.640  0.00  0.00    +0.000 OA
BRANCH  15  17
ATOM     17  C14 UNL     1      18.272  -4.809  -0.741  0.00  0.00    +0.000 C 
BRANCH  17  18
ATOM     18  C15 UNL     1      18.097  -5.234  -2.206  0.00  0.00    +0.000 C 
ATOM     19  C16 UNL     1      19.120  -4.509  -3.083  0.00  0.00    +0.000 C 
ATOM     20  C17 UNL     1      18.254  -6.746  -2.377  0.00  0.00    +0.000 C 
ENDBRANCH  17  18
ENDBRANCH  15  17
ENDBRANCH  14  15
ENDBRANCH   5   9
BRANCH   4  21
ATOM     21  C5  UNL     1      19.270  -7.268   2.471  0.00  0.00    +0.000 C 
ATOM     22  N1  UNL     1      20.476  -6.922   2.131  0.00  0.00    +0.000 NA
BRANCH  22  23
ATOM     23  O1  UNL     1      20.662  -6.924   0.746  0.00  0.00    +0.000 OA
ATOM     24  H   UNL     1      21.109  -7.637   0.335  0.00  0.00    +0.000 HD
ENDBRANCH  22  23
ENDBRANCH   4  21
TORSDOF 6
ENDMDL
MODEL 4
REMARK VINA RESULT:    -5.759     21.853     23.985
REMARK INTER + INTRA:          -8.791
REMARK INTER:                  -7.701
REMARK INTRA:                  -1.090
REMARK UNBOUND:                -1.180
REMARK  Name = laboratorio_evolutivo\Gen6_Mutante_5.pdb
REMARK  10 active torsions:
REMARK  status: ('A' for Active; 'I' for Inactive)
REMARK    1  A    between atoms: C1_1  and  C2_2
REMARK    2  A    between atoms: C4_4  and  C5_5
REMARK    3  A    between atoms: N1_6  and  O1_7
REMARK    4  A    between atoms: C6_8  and  C7_9
REMARK    5  A    between atoms: C10_12  and  C11_13
REMARK    6  A    between atoms: C12_14  and  C13_15
REMARK    7  A    between atoms: C13_15  and  C14_17
REMARK    8  A    between atoms: C14_17  and  C15_18
REMARK    9  A    between atoms: C15_18  and  C16_19
REMARK   10  A    between atoms: C15_18  and  C17_20
REMARK                            x       y       z     vdW  Elec       q    Type
REMARK                         _______ _______ _______ _____ _____    ______ ____
ROOT
ATOM      1  C1  UNL     1      20.223  -4.519   2.250  0.00  0.00    +0.000 C 
ATOM      2  C2  UNL     1      19.228  -5.602   1.961  0.00  0.00    +0.000 C 
ATOM      3  C3  UNL     1      19.484  -6.908   2.336  0.00  0.00    +0.000 C 
ATOM      4  C4  UNL     1      18.525  -7.884   2.058  0.00  0.00    +0.000 C 
ATOM      5  C6  UNL     1      17.330  -7.563   1.396  0.00  0.00    +0.000 C 
ATOM      6  C18 UNL     1      17.177  -6.214   1.080  0.00  0.00    +0.000 C 
ATOM      7  F1  UNL     1      16.049  -5.801   0.486  0.00  0.00    +0.000 F 
ATOM      8  N2  UNL     1      18.090  -5.249   1.334  0.00  0.00    +0.000 NA
ENDROOT
BRANCH   5   9
ATOM      9  C7  UNL     1      16.259  -8.592   1.102  0.00  0.00    +0.000 C 
ATOM     10  C8  UNL     1      15.477  -8.434  -0.222  0.00  0.00    +0.000 C 
ATOM     11  C9  UNL     1      14.014  -8.292   0.170  0.00  0.00    +0.000 C 
ATOM     12  C10 UNL     1      13.878  -9.099   1.462  0.00  0.00    +0.000 C 
ATOM     13  C11 UNL     1      13.693 -10.592   1.185  0.00  0.00    +0.000 C 
ATOM     14  C12 UNL     1      15.197  -8.817   2.209  0.00  0.00    +0.000 C 
BRANCH  14  15
ATOM     15  C13 UNL     1      15.008  -7.654   3.188  0.00  0.00    +0.000 C 
ATOM     16  O2  UNL     1      15.701  -7.540   4.198  0.00  0.00    +0.000 OA
BRANCH  15  17
ATOM     17  C14 UNL     1      13.947  -6.628   2.812  0.00  0.00    +0.000 C 
BRANCH  17  18
ATOM     18  C15 UNL     1      13.779  -5.492   3.832  0.00  0.00    +0.000 C 
ATOM     19  C16 UNL     1      14.523  -4.246   3.349  0.00  0.00    +0.000 C 
ATOM     20  C17 UNL     1      12.304  -5.153   4.061  0.00  0.00    +0.000 C 
ENDBRANCH  17  18
ENDBRANCH  15  17
ENDBRANCH  14  15
ENDBRANCH   5   9
BRANCH   4  21
ATOM     21  C5  UNL     1      18.843  -9.278   2.433  0.00  0.00    +0.000 C 
ATOM     22  N1  UNL     1      18.643  -9.861   3.578  0.00  0.00    +0.000 NA
BRANCH  22  23
ATOM     23  O1  UNL     1      18.005  -9.026   4.499  0.00  0.00    +0.000 OA
ATOM     24  H   UNL     1      17.640  -9.386   5.283  0.00  0.00    +0.000 HD
ENDBRANCH  22  23
ENDBRANCH   4  21
TORSDOF 6
ENDMDL
MODEL 5
REMARK VINA RESULT:    -5.759      2.445      4.111
REMARK INTER + INTRA:          -8.791
REMARK INTER:                  -8.003
REMARK INTRA:                  -0.787
REMARK UNBOUND:                -1.180
REMARK  Name = laboratorio_evolutivo\Gen6_Mutante_5.pdb
REMARK  10 active torsions:
REMARK  status: ('A' for Active; 'I' for Inactive)
REMARK    1  A    between atoms: C1_1  and  C2_2
REMARK    2  A    between atoms: C4_4  and  C5_5
REMARK    3  A    between atoms: N1_6  and  O1_7
REMARK    4  A    between atoms: C6_8  and  C7_9
REMARK    5  A    between atoms: C10_12  and  C11_13
REMARK    6  A    between atoms: C12_14  and  C13_15
REMARK    7  A    between atoms: C13_15  and  C14_17
REMARK    8  A    between atoms: C14_17  and  C15_18
REMARK    9  A    between atoms: C15_18  and  C16_19
REMARK   10  A    between atoms: C15_18  and  C17_20
REMARK                            x       y       z     vdW  Elec       q    Type
REMARK                         _______ _______ _______ _____ _____    ______ ____
ROOT
ATOM      1  C1  UNL     1      -0.968  -5.079  15.983  0.00  0.00    +0.000 C 
ATOM      2  C2  UNL     1      -0.205  -4.193  16.920  0.00  0.00    +0.000 C 
ATOM      3  C3  UNL     1       0.686  -3.256  16.430  0.00  0.00    +0.000 C 
ATOM      4  C4  UNL     1       1.368  -2.443  17.338  0.00  0.00    +0.000 C 
ATOM      5  C6  UNL     1       1.177  -2.576  18.722  0.00  0.00    +0.000 C 
ATOM      6  C18 UNL     1       0.246  -3.543  19.096  0.00  0.00    +0.000 C 
ATOM      7  F1  UNL     1      -0.039  -3.715  20.394  0.00  0.00    +0.000 F 
ATOM      8  N2  UNL     1      -0.426  -4.346  18.240  0.00  0.00    +0.000 NA
ENDROOT
BRANCH   5   9
ATOM      9  C7  UNL     1       1.881  -1.694  19.730  0.00  0.00    +0.000 C 
ATOM     10  C8  UNL     1       2.117  -2.287  21.139  0.00  0.00    +0.000 C 
ATOM     11  C9  UNL     1       1.410  -1.353  22.109  0.00  0.00    +0.000 C 
ATOM     12  C10 UNL     1       1.483   0.024  21.447  0.00  0.00    +0.000 C 
ATOM     13  C11 UNL     1       2.823   0.713  21.708  0.00  0.00    +0.000 C 
ATOM     14  C12 UNL     1       1.281  -0.281  19.949  0.00  0.00    +0.000 C 
BRANCH  14  15
ATOM     15  C13 UNL     1      -0.197  -0.127  19.576  0.00  0.00    +0.000 C 
ATOM     16  O2  UNL     1      -0.546   0.221  18.449  0.00  0.00    +0.000 OA
BRANCH  15  17
ATOM     17  C14 UNL     1      -1.203  -0.476  20.665  0.00  0.00    +0.000 C 
BRANCH  17  18
ATOM     18  C15 UNL     1      -2.585  -0.889  20.139  0.00  0.00    +0.000 C 
ATOM     19  C16 UNL     1      -2.944  -2.282  20.658  0.00  0.00    +0.000 C 
ATOM     20  C17 UNL     1      -3.668   0.109  20.555  0.00  0.00    +0.000 C 
ENDBRANCH  17  18
ENDBRANCH  15  17
ENDBRANCH  14  15
ENDBRANCH   5   9
BRANCH   4  21
ATOM     21  C5  UNL     1       2.344  -1.478  16.789  0.00  0.00    +0.000 C 
ATOM     22  N1  UNL     1       3.597  -1.684  16.507  0.00  0.00    +0.000 NA
BRANCH  22  23
ATOM     23  O1  UNL     1       3.983  -3.009  16.729  0.00  0.00    +0.000 OA
ATOM     24  H   UNL     1       3.686  -3.686  16.154  0.00  0.00    +0.000 HD
ENDBRANCH  22  23
ENDBRANCH   4  21
TORSDOF 6
ENDMDL
MODEL 6
REMARK VINA RESULT:    -5.712     21.913     24.165
REMARK INTER + INTRA:          -8.728
REMARK INTER:                  -7.810
REMARK INTRA:                  -0.918
REMARK UNBOUND:                -1.180
REMARK  Name = laboratorio_evolutivo\Gen6_Mutante_5.pdb
REMARK  10 active torsions:
REMARK  status: ('A' for Active; 'I' for Inactive)
REMARK    1  A    between atoms: C1_1  and  C2_2
REMARK    2  A    between atoms: C4_4  and  C5_5
REMARK    3  A    between atoms: N1_6  and  O1_7
REMARK    4  A    between atoms: C6_8  and  C7_9
REMARK    5  A    between atoms: C10_12  and  C11_13
REMARK    6  A    between atoms: C12_14  and  C13_15
REMARK    7  A    between atoms: C13_15  and  C14_17
REMARK    8  A    between atoms: C14_17  and  C15_18
REMARK    9  A    between atoms: C15_18  and  C16_19
REMARK   10  A    between atoms: C15_18  and  C17_20
REMARK                            x       y       z     vdW  Elec       q    Type
REMARK                         _______ _______ _______ _____ _____    ______ ____
ROOT
ATOM      1  C1  UNL     1      12.676  -2.837  -0.311  0.00  0.00    +0.000 C 
ATOM      2  C2  UNL     1      14.015  -3.319   0.158  0.00  0.00    +0.000 C 
ATOM      3  C3  UNL     1      14.474  -2.995   1.421  0.00  0.00    +0.000 C 
ATOM      4  C4  UNL     1      15.723  -3.475   1.823  0.00  0.00    +0.000 C 
ATOM      5  C6  UNL     1      16.513  -4.256   0.965  0.00  0.00    +0.000 C 
ATOM      6  C18 UNL     1      15.939  -4.530  -0.275  0.00  0.00    +0.000 C 
ATOM      7  F1  UNL     1      16.598  -5.306  -1.148  0.00  0.00    +0.000 F 
ATOM      8  N2  UNL     1      14.736  -4.076  -0.692  0.00  0.00    +0.000 NA
ENDROOT
BRANCH   5   9
ATOM      9  C7  UNL     1      17.858  -4.813   1.378  0.00  0.00    +0.000 C 
ATOM     10  C8  UNL     1      18.954  -4.884   0.290  0.00  0.00    +0.000 C 
ATOM     11  C9  UNL     1      19.349  -6.349   0.188  0.00  0.00    +0.000 C 
ATOM     12  C10 UNL     1      19.129  -6.910   1.593  0.00  0.00    +0.000 C 
ATOM     13  C11 UNL     1      20.314  -6.620   2.515  0.00  0.00    +0.000 C 
ATOM     14  C12 UNL     1      17.847  -6.199   2.073  0.00  0.00    +0.000 C 
BRANCH  14  15
ATOM     15  C13 UNL     1      16.622  -7.072   1.783  0.00  0.00    +0.000 C 
ATOM     16  O2  UNL     1      16.444  -7.592   0.683  0.00  0.00    +0.000 OA
BRANCH  15  17
ATOM     17  C14 UNL     1      15.668  -7.295   2.950  0.00  0.00    +0.000 C 
BRANCH  17  18
ATOM     18  C15 UNL     1      14.533  -6.266   3.042  0.00  0.00    +0.000 C 
ATOM     19  C16 UNL     1      13.285  -6.802   2.338  0.00  0.00    +0.000 C 
ATOM     20  C17 UNL     1      14.197  -5.926   4.496  0.00  0.00    +0.000 C 
ENDBRANCH  17  18
ENDBRANCH  15  17
ENDBRANCH  14  15
ENDBRANCH   5   9
BRANCH   4  21
ATOM     21  C5  UNL     1      16.207  -3.078   3.161  0.00  0.00    +0.000 C 
ATOM     22  N1  UNL     1      16.801  -1.971   3.499  0.00  0.00    +0.000 NA
BRANCH  22  23
ATOM     23  O1  UNL     1      16.915  -1.079   2.430  0.00  0.00    +0.000 OA
ATOM     24  H   UNL     1      16.631  -0.192   2.528  0.00  0.00    +0.000 HD
ENDBRANCH  22  23
ENDBRANCH   4  21
TORSDOF 6
ENDMDL
MODEL 7
REMARK VINA RESULT:    -5.663      2.520      4.131
REMARK INTER + INTRA:          -8.664
REMARK INTER:                  -7.582
REMARK INTRA:                  -1.082
REMARK UNBOUND:                -1.180
REMARK  Name = laboratorio_evolutivo\Gen6_Mutante_5.pdb
REMARK  10 active torsions:
REMARK  status: ('A' for Active; 'I' for Inactive)
REMARK    1  A    between atoms: C1_1  and  C2_2
REMARK    2  A    between atoms: C4_4  and  C5_5
REMARK    3  A    between atoms: N1_6  and  O1_7
REMARK    4  A    between atoms: C6_8  and  C7_9
REMARK    5  A    between atoms: C10_12  and  C11_13
REMARK    6  A    between atoms: C12_14  and  C13_15
REMARK    7  A    between atoms: C13_15  and  C14_17
REMARK    8  A    between atoms: C14_17  and  C15_18
REMARK    9  A    between atoms: C15_18  and  C16_19
REMARK   10  A    between atoms: C15_18  and  C17_20
REMARK                            x       y       z     vdW  Elec       q    Type
REMARK                         _______ _______ _______ _____ _____    ______ ____
ROOT
ATOM      1  C1  UNL     1       3.736   1.339  22.976  0.00  0.00    +0.000 C 
ATOM      2  C2  UNL     1       2.613   1.260  21.987  0.00  0.00    +0.000 C 
ATOM      3  C3  UNL     1       2.474   2.224  21.005  0.00  0.00    +0.000 C 
ATOM      4  C4  UNL     1       1.420   2.106  20.096  0.00  0.00    +0.000 C 
ATOM      5  C6  UNL     1       0.503   1.046  20.178  0.00  0.00    +0.000 C 
ATOM      6  C18 UNL     1       0.753   0.131  21.198  0.00  0.00    +0.000 C 
ATOM      7  F1  UNL     1      -0.042  -0.941  21.330  0.00  0.00    +0.000 F 
ATOM      8  N2  UNL     1       1.762   0.221  22.094  0.00  0.00    +0.000 NA
ENDROOT
BRANCH   5   9
ATOM      9  C7  UNL     1      -0.635   0.876  19.194  0.00  0.00    +0.000 C 
ATOM     10  C8  UNL     1      -1.905   0.157  19.705  0.00  0.00    +0.000 C 
ATOM     11  C9  UNL     1      -2.091  -1.054  18.805  0.00  0.00    +0.000 C 
ATOM     12  C10 UNL     1      -1.512  -0.629  17.455  0.00  0.00    +0.000 C 
ATOM     13  C11 UNL     1      -2.517   0.179  16.632  0.00  0.00    +0.000 C 
ATOM     14  C12 UNL     1      -0.279   0.215  17.837  0.00  0.00    +0.000 C 
BRANCH  14  15
ATOM     15  C13 UNL     1       0.978  -0.662  17.839  0.00  0.00    +0.000 C 
ATOM     16  O2  UNL     1       2.107  -0.173  17.825  0.00  0.00    +0.000 OA
BRANCH  15  17
ATOM     17  C14 UNL     1       0.745  -2.165  17.906  0.00  0.00    +0.000 C 
BRANCH  17  18
ATOM     18  C15 UNL     1       1.436  -2.858  19.089  0.00  0.00    +0.000 C 
ATOM     19  C16 UNL     1       0.435  -3.747  19.829  0.00  0.00    +0.000 C 
ATOM     20  C17 UNL     1       2.630  -3.699  18.632  0.00  0.00    +0.000 C 
ENDBRANCH  17  18
ENDBRANCH  15  17
ENDBRANCH  14  15
ENDBRANCH   5   9
BRANCH   4  21
ATOM     21  C5  UNL     1       1.271   3.172  19.083  0.00  0.00    +0.000 C 
ATOM     22  N1  UNL     1       2.019   3.394  18.043  0.00  0.00    +0.000 NA
BRANCH  22  23
ATOM     23  O1  UNL     1       3.034   2.443  17.903  0.00  0.00    +0.000 OA
ATOM     24  H   UNL     1       3.531   2.175  18.650  0.00  0.00    +0.000 HD
ENDBRANCH  22  23
ENDBRANCH   4  21
TORSDOF 6
ENDMDL
MODEL 8
REMARK VINA RESULT:    -5.650      2.645      4.578
REMARK INTER + INTRA:          -8.647
REMARK INTER:                  -7.457
REMARK INTRA:                  -1.190
REMARK UNBOUND:                -1.180
REMARK  Name = laboratorio_evolutivo\Gen6_Mutante_5.pdb
REMARK  10 active torsions:
REMARK  status: ('A' for Active; 'I' for Inactive)
REMARK    1  A    between atoms: C1_1  and  C2_2
REMARK    2  A    between atoms: C4_4  and  C5_5
REMARK    3  A    between atoms: N1_6  and  O1_7
REMARK    4  A    between atoms: C6_8  and  C7_9
REMARK    5  A    between atoms: C10_12  and  C11_13
REMARK    6  A    between atoms: C12_14  and  C13_15
REMARK    7  A    between atoms: C13_15  and  C14_17
REMARK    8  A    between atoms: C14_17  and  C15_18
REMARK    9  A    between atoms: C15_18  and  C16_19
REMARK   10  A    between atoms: C15_18  and  C17_20
REMARK                            x       y       z     vdW  Elec       q    Type
REMARK                         _______ _______ _______ _____ _____    ______ ____
ROOT
ATOM      1  C1  UNL     1       3.029  -3.594  17.274  0.00  0.00    +0.000 C 
ATOM      2  C2  UNL     1       2.254  -2.423  17.799  0.00  0.00    +0.000 C 
ATOM      3  C3  UNL     1       1.857  -2.381  19.122  0.00  0.00    +0.000 C 
ATOM      4  C4  UNL     1       1.146  -1.266  19.573  0.00  0.00    +0.000 C 
ATOM      5  C6  UNL     1       0.820  -0.212  18.706  0.00  0.00    +0.000 C 
ATOM      6  C18 UNL     1       1.286  -0.359  17.401  0.00  0.00    +0.000 C 
ATOM      7  F1  UNL     1       1.064   0.617  16.508  0.00  0.00    +0.000 F 
ATOM      8  N2  UNL     1       1.972  -1.427  16.936  0.00  0.00    +0.000 NA
ENDROOT
BRANCH   5   9
ATOM      9  C7  UNL     1       0.074   1.022  19.167  0.00  0.00    +0.000 C 
ATOM     10  C8  UNL     1      -0.967   1.620  18.193  0.00  0.00    +0.000 C 
ATOM     11  C9  UNL     1      -0.518   3.048  17.927  0.00  0.00    +0.000 C 
ATOM     12  C10 UNL     1       0.190   3.480  19.212  0.00  0.00    +0.000 C 
ATOM     13  C11 UNL     1      -0.800   3.954  20.277  0.00  0.00    +0.000 C 
ATOM     14  C12 UNL     1       0.942   2.209  19.657  0.00  0.00    +0.000 C 
BRANCH  14  15
ATOM     15  C13 UNL     1       2.380   2.238  19.130  0.00  0.00    +0.000 C 
ATOM     16  O2  UNL     1       2.650   2.669  18.010  0.00  0.00    +0.000 OA
BRANCH  15  17
ATOM     17  C14 UNL     1       3.455   1.747  20.091  0.00  0.00    +0.000 C 
BRANCH  17  18
ATOM     18  C15 UNL     1       3.122   1.962  21.574  0.00  0.00    +0.000 C 
ATOM     19  C16 UNL     1       3.473   0.706  22.373  0.00  0.00    +0.000 C 
ATOM     20  C17 UNL     1       3.871   3.165  22.152  0.00  0.00    +0.000 C 
ENDBRANCH  17  18
ENDBRANCH  15  17
ENDBRANCH  14  15
ENDBRANCH   5   9
BRANCH   4  21
ATOM     21  C5  UNL     1       0.698  -1.267  20.981  0.00  0.00    +0.000 C 
ATOM     22  N1  UNL     1      -0.414  -1.738  21.464  0.00  0.00    +0.000 NA
BRANCH  22  23
ATOM     23  O1  UNL     1      -1.206  -2.344  20.485  0.00  0.00    +0.000 OA
ATOM     24  H   UNL     1      -1.887  -2.937  20.735  0.00  0.00    +0.000 HD
ENDBRANCH  22  23
ENDBRANCH   4  21
TORSDOF 6
ENDMDL
MODEL 9
REMARK VINA RESULT:    -5.640      2.455      3.660
REMARK INTER + INTRA:          -8.633
REMARK INTER:                  -7.467
REMARK INTRA:                  -1.166
REMARK UNBOUND:                -1.180
REMARK  Name = laboratorio_evolutivo\Gen6_Mutante_5.pdb
REMARK  10 active torsions:
REMARK  status: ('A' for Active; 'I' for Inactive)
REMARK    1  A    between atoms: C1_1  and  C2_2
REMARK    2  A    between atoms: C4_4  and  C5_5
REMARK    3  A    between atoms: N1_6  and  O1_7
REMARK    4  A    between atoms: C6_8  and  C7_9
REMARK    5  A    between atoms: C10_12  and  C11_13
REMARK    6  A    between atoms: C12_14  and  C13_15
REMARK    7  A    between atoms: C13_15  and  C14_17
REMARK    8  A    between atoms: C14_17  and  C15_18
REMARK    9  A    between atoms: C15_18  and  C16_19
REMARK   10  A    between atoms: C15_18  and  C17_20
REMARK                            x       y       z     vdW  Elec       q    Type
REMARK                         _______ _______ _______ _____ _____    ______ ____
ROOT
ATOM      1  C1  UNL     1       3.038   1.585  22.972  0.00  0.00    +0.000 C 
ATOM      2  C2  UNL     1       2.504   0.734  21.860  0.00  0.00    +0.000 C 
ATOM      3  C3  UNL     1       1.971  -0.514  22.125  0.00  0.00    +0.000 C 
ATOM      4  C4  UNL     1       1.474  -1.270  21.061  0.00  0.00    +0.000 C 
ATOM      5  C6  UNL     1       1.525  -0.791  19.742  0.00  0.00    +0.000 C 
ATOM      6  C18 UNL     1       2.070   0.483  19.600  0.00  0.00    +0.000 C 
ATOM      7  F1  UNL     1       2.121   1.046  18.384  0.00  0.00    +0.000 F 
ATOM      8  N2  UNL     1       2.562   1.235  20.611  0.00  0.00    +0.000 NA
ENDROOT
BRANCH   5   9
ATOM      9  C7  UNL     1       0.973  -1.573  18.570  0.00  0.00    +0.000 C 
ATOM     10  C8  UNL     1       1.764  -1.506  17.243  0.00  0.00    +0.000 C 
ATOM     11  C9  UNL     1       0.801  -0.943  16.210  0.00  0.00    +0.000 C 
ATOM     12  C10 UNL     1      -0.580  -1.416  16.666  0.00  0.00    +0.000 C 
ATOM     13  C11 UNL     1      -0.874  -2.846  16.210  0.00  0.00    +0.000 C 
ATOM     14  C12 UNL     1      -0.511  -1.310  18.203  0.00  0.00    +0.000 C 
BRANCH  14  15
ATOM     15  C13 UNL     1      -1.075   0.038  18.663  0.00  0.00    +0.000 C 
ATOM     16  O2  UNL     1      -1.235   0.300  19.855  0.00  0.00    +0.000 OA
BRANCH  15  17
ATOM     17  C14 UNL     1      -1.381   1.046  17.563  0.00  0.00    +0.000 C 
BRANCH  17  18
ATOM     18  C15 UNL     1      -0.575   2.349  17.661  0.00  0.00    +0.000 C 
ATOM     19  C16 UNL     1       0.053   2.675  16.304  0.00  0.00    +0.000 C 
ATOM     20  C17 UNL     1      -1.449   3.520  18.116  0.00  0.00    +0.000 C 
ENDBRANCH  17  18
ENDBRANCH  15  17
ENDBRANCH  14  15
ENDBRANCH   5   9
BRANCH   4  21
ATOM     21  C5  UNL     1       0.949  -2.617  21.367  0.00  0.00    +0.000 C 
ATOM     22  N1  UNL     1      -0.267  -2.944  21.692  0.00  0.00    +0.000 NA
BRANCH  22  23
ATOM     23  O1  UNL     1      -1.136  -1.848  21.680  0.00  0.00    +0.000 OA
ATOM     24  H   UNL     1      -0.905  -1.073  21.207  0.00  0.00    +0.000 HD
ENDBRANCH  22  23
ENDBRANCH   4  21
TORSDOF 6
ENDMDL
