MODEL 1
REMARK VINA RESULT:    -8.558      0.000      0.000
REMARK INTER + INTRA:         -12.347
REMARK INTER:                 -11.310
REMARK INTRA:                  -1.037
REMARK UNBOUND:                -1.037
REMARK  Name = laboratorio_evolutivo\Gen6_Mutante_7.pdb
REMARK  11 active torsions:
REMARK  status: ('A' for Active; 'I' for Inactive)
REMARK    1  A    between atoms: C1_1  and  C2_2
REMARK    2  A    between atoms: C4_4  and  C5_5
REMARK    3  A    between atoms: N1_6  and  O1_7
REMARK    4  A    between atoms: C6_8  and  C7_9
REMARK    5  A    between atoms: C10_12  and  C11_13
REMARK    6  A    between atoms: C12_14  and  C13_15
REMARK    7  A    between atoms: C13_15  and  C14_17
REMARK    8  A    between atoms: C14_17  and  C15_18
REMARK    9  A    between atoms: C14_17  and  C16_19
REMARK   10  A    between atoms: C16_19  and  C17_20
REMARK   11  A    between atoms: C16_19  and  C18_21
REMARK                            x       y       z     vdW  Elec       q    Type
REMARK                         _______ _______ _______ _____ _____    ______ ____
ROOT
ATOM      1  C7  UNL     1       2.216  61.661  69.982  0.00  0.00    +0.000 C 
ATOM      2  C8  UNL     1       2.464  60.146  70.040  0.00  0.00    +0.000 C 
ATOM      3  C9  UNL     1       3.636  59.944  69.093  0.00  0.00    +0.000 C 
ATOM      4  C10 UNL     1       4.563  61.126  69.385  0.00  0.00    +0.000 C 
ATOM      5  C11 UNL     1       5.548  60.812  70.512  0.00  0.00    +0.000 C 
ATOM      6  C12 UNL     1       3.621  62.289  69.770  0.00  0.00    +0.000 C 
ENDROOT
BRANCH   1  11
ATOM      7  C1  UNL     1      -0.304  63.677  74.791  0.00  0.00    +0.000 C 
ATOM      8  C2  UNL     1       0.314  63.177  73.520  0.00  0.00    +0.000 C 
ATOM      9  C3  UNL     1      -0.113  63.664  72.296  0.00  0.00    +0.000 C 
ATOM     10  C4  UNL     1       0.492  63.186  71.130  0.00  0.00    +0.000 C 
ATOM     11  C6  UNL     1       1.493  62.207  71.195  0.00  0.00    +0.000 C 
ATOM     12  C19 UNL     1       1.845  61.793  72.479  0.00  0.00    +0.000 C 
ATOM     13  N2  UNL     1       1.289  62.250  73.624  0.00  0.00    +0.000 NA
BRANCH  10  14
ATOM     14  C5  UNL     1      -0.002  63.700  69.835  0.00  0.00    +0.000 C 
ATOM     15  N1  UNL     1      -0.101  64.939  69.453  0.00  0.00    +0.000 NA
BRANCH  15  16
ATOM     16  O1  UNL     1       0.417  65.838  70.388  0.00  0.00    +0.000 OA
ATOM     17  H   UNL     1       1.292  65.731  70.706  0.00  0.00    +0.000 HD
ENDBRANCH  15  16
ENDBRANCH  10  14
ENDBRANCH   1  11
BRANCH   6  18
ATOM     18  C13 UNL     1       3.624  63.325  68.644  0.00  0.00    +0.000 C 
ATOM     19  O2  UNL     1       3.404  63.004  67.474  0.00  0.00    +0.000 OA
BRANCH  18  20
ATOM     20  C14 UNL     1       3.987  64.763  69.026  0.00  0.00    +0.000 C 
ATOM     21  C15 UNL     1       5.452  64.816  69.463  0.00  0.00    +0.000 C 
BRANCH  20  22
ATOM     22  C16 UNL     1       3.660  65.787  67.914  0.00  0.00    +0.000 C 
ATOM     23  C17 UNL     1       4.887  66.105  67.057  0.00  0.00    +0.000 C 
ATOM     24  C18 UNL     1       3.031  67.089  68.419  0.00  0.00    +0.000 C 
ENDBRANCH  20  22
ENDBRANCH  18  20
ENDBRANCH   6  18
TORSDOF 6
ENDMDL
MODEL 2
REMARK VINA RESULT:    -8.225      2.589      6.266
REMARK INTER + INTRA:         -11.907
REMARK INTER:                 -10.269
REMARK INTRA:                  -1.638
REMARK UNBOUND:                -1.037
REMARK  Name = laboratorio_evolutivo\Gen6_Mutante_7.pdb
REMARK  11 active torsions:
REMARK  status: ('A' for Active; 'I' for Inactive)
REMARK    1  A    between atoms: C1_1  and  C2_2
REMARK    2  A    between atoms: C4_4  and  C5_5
REMARK    3  A    between atoms: N1_6  and  O1_7
REMARK    4  A    between atoms: C6_8  and  C7_9
REMARK    5  A    between atoms: C10_12  and  C11_13
REMARK    6  A    between atoms: C12_14  and  C13_15
REMARK    7  A    between atoms: C13_15  and  C14_17
REMARK    8  A    between atoms: C14_17  and  C15_18
REMARK    9  A    between atoms: C14_17  and  C16_19
REMARK   10  A    between atoms: C16_19  and  C17_20
REMARK   11  A    between atoms: C16_19  and  C18_21
REMARK                            x       y       z     vdW  Elec       q    Type
REMARK                         _______ _______ _______ _____ _____    ______ ____
ROOT
ATOM      1  C7  UNL     1       1.272  62.422  70.519  0.00  0.00    +0.000 C 
ATOM      2  C8  UNL     1      -0.199  62.866  70.520  0.00  0.00    +0.000 C 
ATOM      3  C9  UNL     1      -0.782  62.155  71.729  0.00  0.00    +0.000 C 
ATOM      4  C10 UNL     1       0.305  62.278  72.799  0.00  0.00    +0.000 C 
ATOM      5  C11 UNL     1       0.161  63.565  73.611  0.00  0.00    +0.000 C 
ATOM      6  C12 UNL     1       1.639  62.252  72.019  0.00  0.00    +0.000 C 
ENDROOT
BRANCH   1  11
ATOM      7  C1  UNL     1       4.703  66.265  67.875  0.00  0.00    +0.000 C 
ATOM      8  C2  UNL     1       3.840  65.234  68.537  0.00  0.00    +0.000 C 
ATOM      9  C3  UNL     1       4.173  63.892  68.466  0.00  0.00    +0.000 C 
ATOM     10  C4  UNL     1       3.352  62.958  69.104  0.00  0.00    +0.000 C 
ATOM     11  C6  UNL     1       2.194  63.368  69.779  0.00  0.00    +0.000 C 
ATOM     12  C19 UNL     1       1.959  64.742  69.789  0.00  0.00    +0.000 C 
ATOM     13  N2  UNL     1       2.744  65.669  69.194  0.00  0.00    +0.000 NA
BRANCH  10  14
ATOM     14  C5  UNL     1       3.713  61.529  68.990  0.00  0.00    +0.000 C 
ATOM     15  N1  UNL     1       4.664  60.894  69.609  0.00  0.00    +0.000 NA
BRANCH  15  16
ATOM     16  O1  UNL     1       5.330  61.690  70.542  0.00  0.00    +0.000 OA
ATOM     17  H   UNL     1       5.485  62.596  70.360  0.00  0.00    +0.000 HD
ENDBRANCH  15  16
ENDBRANCH  10  14
ENDBRANCH   1  11
BRANCH   6  18
ATOM     18  C13 UNL     1       2.349  60.925  72.290  0.00  0.00    +0.000 C 
ATOM     19  O2  UNL     1       3.490  60.888  72.756  0.00  0.00    +0.000 OA
BRANCH  18  20
ATOM     20  C14 UNL     1       1.606  59.646  71.889  0.00  0.00    +0.000 C 
ATOM     21  C15 UNL     1       2.515  58.791  71.004  0.00  0.00    +0.000 C 
BRANCH  20  22
ATOM     22  C16 UNL     1       1.046  58.864  73.100  0.00  0.00    +0.000 C 
ATOM     23  C17 UNL     1       1.762  57.525  73.290  0.00  0.00    +0.000 C 
ATOM     24  C18 UNL     1      -0.468  58.641  73.062  0.00  0.00    +0.000 C 
ENDBRANCH  20  22
ENDBRANCH  18  20
ENDBRANCH   6  18
TORSDOF 6
ENDMDL
MODEL 3
REMARK VINA RESULT:    -8.187      1.868      2.742
REMARK INTER + INTRA:         -11.856
REMARK INTER:                 -11.370
REMARK INTRA:                  -0.486
REMARK UNBOUND:                -1.037
REMARK  Name = laboratorio_evolutivo\Gen6_Mutante_7.pdb
REMARK  11 active torsions:
REMARK  status: ('A' for Active; 'I' for Inactive)
REMARK    1  A    between atoms: C1_1  and  C2_2
REMARK    2  A    between atoms: C4_4  and  C5_5
REMARK    3  A    between atoms: N1_6  and  O1_7
REMARK    4  A    between atoms: C6_8  and  C7_9
REMARK    5  A    between atoms: C10_12  and  C11_13
REMARK    6  A    between atoms: C12_14  and  C13_15
REMARK    7  A    between atoms: C13_15  and  C14_17
REMARK    8  A    between atoms: C14_17  and  C15_18
REMARK    9  A    between atoms: C14_17  and  C16_19
REMARK   10  A    between atoms: C16_19  and  C17_20
REMARK   11  A    between atoms: C16_19  and  C18_21
REMARK                            x       y       z     vdW  Elec       q    Type
REMARK                         _______ _______ _______ _____ _____    ______ ____
ROOT
ATOM      1  C7  UNL     1       2.244  61.627  70.077  0.00  0.00    +0.000 C 
ATOM      2  C8  UNL     1       2.460  60.106  70.043  0.00  0.00    +0.000 C 
ATOM      3  C9  UNL     1       3.589  59.932  69.042  0.00  0.00    +0.000 C 
ATOM      4  C10 UNL     1       4.554  61.077  69.361  0.00  0.00    +0.000 C 
ATOM      5  C11 UNL     1       5.573  60.681  70.430  0.00  0.00    +0.000 C 
ATOM      6  C12 UNL     1       3.653  62.236  69.845  0.00  0.00    +0.000 C 
ENDROOT
BRANCH   1  11
ATOM      7  C1  UNL     1      -0.559  63.541  74.770  0.00  0.00    +0.000 C 
ATOM      8  C2  UNL     1       0.203  63.031  73.584  0.00  0.00    +0.000 C 
ATOM      9  C3  UNL     1       1.330  62.245  73.762  0.00  0.00    +0.000 C 
ATOM     10  C4  UNL     1       2.011  61.776  72.635  0.00  0.00    +0.000 C 
ATOM     11  C6  UNL     1       1.579  62.119  71.346  0.00  0.00    +0.000 C 
ATOM     12  C19 UNL     1       0.434  62.911  71.287  0.00  0.00    +0.000 C 
ATOM     13  N2  UNL     1      -0.254  63.365  72.359  0.00  0.00    +0.000 NA
BRANCH  10  14
ATOM     14  C5  UNL     1       3.226  60.963  72.851  0.00  0.00    +0.000 C 
ATOM     15  N1  UNL     1       3.302  59.737  73.276  0.00  0.00    +0.000 NA
BRANCH  15  16
ATOM     16  O1  UNL     1       2.049  59.144  73.447  0.00  0.00    +0.000 OA
ATOM     17  H   UNL     1       1.695  58.593  72.776  0.00  0.00    +0.000 HD
ENDBRANCH  15  16
ENDBRANCH  10  14
ENDBRANCH   1  11
BRANCH   6  18
ATOM     18  C13 UNL     1       3.638  63.332  68.779  0.00  0.00    +0.000 C 
ATOM     19  O2  UNL     1       3.475  63.067  67.586  0.00  0.00    +0.000 OA
BRANCH  18  20
ATOM     20  C14 UNL     1       3.908  64.764  69.251  0.00  0.00    +0.000 C 
ATOM     21  C15 UNL     1       5.355  65.140  68.923  0.00  0.00    +0.000 C 
BRANCH  20  22
ATOM     22  C16 UNL     1       2.888  65.788  68.700  0.00  0.00    +0.000 C 
ATOM     23  C17 UNL     1       3.435  67.216  68.749  0.00  0.00    +0.000 C 
ATOM     24  C18 UNL     1       1.515  65.736  69.376  0.00  0.00    +0.000 C 
ENDBRANCH  20  22
ENDBRANCH  18  20
ENDBRANCH   6  18
TORSDOF 6
ENDMDL
MODEL 4
REMARK VINA RESULT:    -7.888      3.009      4.068
REMARK INTER + INTRA:         -11.460
REMARK INTER:                  -9.927
REMARK INTRA:                  -1.533
REMARK UNBOUND:                -1.037
REMARK  Name = laboratorio_evolutivo\Gen6_Mutante_7.pdb
REMARK  11 active torsions:
REMARK  status: ('A' for Active; 'I' for Inactive)
REMARK    1  A    between atoms: C1_1  and  C2_2
REMARK    2  A    between atoms: C4_4  and  C5_5
REMARK    3  A    between atoms: N1_6  and  O1_7
REMARK    4  A    between atoms: C6_8  and  C7_9
REMARK    5  A    between atoms: C10_12  and  C11_13
REMARK    6  A    between atoms: C12_14  and  C13_15
REMARK    7  A    between atoms: C13_15  and  C14_17
REMARK    8  A    between atoms: C14_17  and  C15_18
REMARK    9  A    between atoms: C14_17  and  C16_19
REMARK   10  A    between atoms: C16_19  and  C17_20
REMARK   11  A    between atoms: C16_19  and  C18_21
REMARK                            x       y       z     vdW  Elec       q    Type
REMARK                         _______ _______ _______ _____ _____    ______ ____
ROOT
ATOM      1  C7  UNL     1       2.049  59.969  70.630  0.00  0.00    +0.000 C 
ATOM      2  C8  UNL     1       2.914  59.287  69.559  0.00  0.00    +0.000 C 
ATOM      3  C9  UNL     1       3.773  60.420  69.024  0.00  0.00    +0.000 C 
ATOM      4  C10 UNL     1       4.161  61.219  70.270  0.00  0.00    +0.000 C 
ATOM      5  C11 UNL     1       5.442  60.684  70.913  0.00  0.00    +0.000 C 
ATOM      6  C12 UNL     1       2.953  61.082  71.226  0.00  0.00    +0.000 C 
ENDROOT
BRANCH   1  11
ATOM      7  C1  UNL     1       0.259  56.227  74.671  0.00  0.00    +0.000 C 
ATOM      8  C2  UNL     1       0.678  57.217  73.626  0.00  0.00    +0.000 C 
ATOM      9  C3  UNL     1      -0.116  58.316  73.346  0.00  0.00    +0.000 C 
ATOM     10  C4  UNL     1       0.310  59.226  72.374  0.00  0.00    +0.000 C 
ATOM     11  C6  UNL     1       1.505  59.015  71.673  0.00  0.00    +0.000 C 
ATOM     12  C19 UNL     1       2.224  57.879  72.040  0.00  0.00    +0.000 C 
ATOM     13  N2  UNL     1       1.845  56.990  72.987  0.00  0.00    +0.000 NA
BRANCH  10  14
ATOM     14  C5  UNL     1      -0.569  60.376  72.072  0.00  0.00    +0.000 C 
ATOM     15  N1  UNL     1      -0.818  61.409  72.821  0.00  0.00    +0.000 NA
BRANCH  15  16
ATOM     16  O1  UNL     1      -0.069  61.417  74.000  0.00  0.00    +0.000 OA
ATOM     17  H   UNL     1       0.806  61.081  74.002  0.00  0.00    +0.000 HD
ENDBRANCH  15  16
ENDBRANCH  10  14
ENDBRANCH   1  11
BRANCH   6  18
ATOM     18  C13 UNL     1       2.231  62.427  71.310  0.00  0.00    +0.000 C 
ATOM     19  O2  UNL     1       1.914  62.921  72.394  0.00  0.00    +0.000 OA
BRANCH  18  20
ATOM     20  C14 UNL     1       1.853  63.096  69.984  0.00  0.00    +0.000 C 
ATOM     21  C15 UNL     1       0.331  63.232  69.902  0.00  0.00    +0.000 C 
BRANCH  20  22
ATOM     22  C16 UNL     1       2.584  64.439  69.752  0.00  0.00    +0.000 C 
ATOM     23  C17 UNL     1       1.609  65.560  69.386  0.00  0.00    +0.000 C 
ATOM     24  C18 UNL     1       3.710  64.374  68.716  0.00  0.00    +0.000 C 
ENDBRANCH  20  22
ENDBRANCH  18  20
ENDBRANCH   6  18
TORSDOF 6
ENDMDL
MODEL 5
REMARK VINA RESULT:    -7.220      3.962      5.792
REMARK INTER + INTRA:         -10.578
REMARK INTER:                  -9.270
REMARK INTRA:                  -1.308
REMARK UNBOUND:                -1.037
REMARK  Name = laboratorio_evolutivo\Gen6_Mutante_7.pdb
REMARK  11 active torsions:
REMARK  status: ('A' for Active; 'I' for Inactive)
REMARK    1  A    between atoms: C1_1  and  C2_2
REMARK    2  A    between atoms: C4_4  and  C5_5
REMARK    3  A    between atoms: N1_6  and  O1_7
REMARK    4  A    between atoms: C6_8  and  C7_9
REMARK    5  A    between atoms: C10_12  and  C11_13
REMARK    6  A    between atoms: C12_14  and  C13_15
REMARK    7  A    between atoms: C13_15  and  C14_17
REMARK    8  A    between atoms: C14_17  and  C15_18
REMARK    9  A    between atoms: C14_17  and  C16_19
REMARK   10  A    between atoms: C16_19  and  C17_20
REMARK   11  A    between atoms: C16_19  and  C18_21
REMARK                            x       y       z     vdW  Elec       q    Type
REMARK                         _______ _______ _______ _____ _____    ______ ____
ROOT
ATOM      1  C7  UNL     1       2.040  59.965  72.817  0.00  0.00    +0.000 C 
ATOM      2  C8  UNL     1       1.499  61.040  73.772  0.00  0.00    +0.000 C 
ATOM      3  C9  UNL     1       1.677  62.330  72.989  0.00  0.00    +0.000 C 
ATOM      4  C10 UNL     1       1.275  61.961  71.559  0.00  0.00    +0.000 C 
ATOM      5  C11 UNL     1      -0.226  62.144  71.326  0.00  0.00    +0.000 C 
ATOM      6  C12 UNL     1       1.693  60.482  71.394  0.00  0.00    +0.000 C 
ENDROOT
BRANCH   1  11
ATOM      7  C1  UNL     1      -0.156  54.667  73.620  0.00  0.00    +0.000 C 
ATOM      8  C2  UNL     1       0.444  56.030  73.449  0.00  0.00    +0.000 C 
ATOM      9  C3  UNL     1       1.618  56.365  74.102  0.00  0.00    +0.000 C 
ATOM     10  C4  UNL     1       2.157  57.641  73.912  0.00  0.00    +0.000 C 
ATOM     11  C6  UNL     1       1.505  58.576  73.097  0.00  0.00    +0.000 C 
ATOM     12  C19 UNL     1       0.334  58.129  72.487  0.00  0.00    +0.000 C 
ATOM     13  N2  UNL     1      -0.201  56.897  72.640  0.00  0.00    +0.000 NA
BRANCH  10  14
ATOM     14  C5  UNL     1       3.395  57.984  74.643  0.00  0.00    +0.000 C 
ATOM     15  N1  UNL     1       3.503  58.524  75.821  0.00  0.00    +0.000 NA
BRANCH  15  16
ATOM     16  O1  UNL     1       2.271  58.697  76.454  0.00  0.00    +0.000 OA
ATOM     17  H   UNL     1       1.755  57.949  76.688  0.00  0.00    +0.000 HD
ENDBRANCH  15  16
ENDBRANCH  10  14
ENDBRANCH   1  11
BRANCH   6  18
ATOM     18  C13 UNL     1       2.892  60.408  70.447  0.00  0.00    +0.000 C 
ATOM     19  O2  UNL     1       3.062  59.442  69.700  0.00  0.00    +0.000 OA
BRANCH  18  20
ATOM     20  C14 UNL     1       3.909  61.551  70.523  0.00  0.00    +0.000 C 
ATOM     21  C15 UNL     1       5.269  60.991  70.944  0.00  0.00    +0.000 C 
BRANCH  20  22
ATOM     22  C16 UNL     1       3.984  62.384  69.222  0.00  0.00    +0.000 C 
ATOM     23  C17 UNL     1       4.415  63.826  69.495  0.00  0.00    +0.000 C 
ATOM     24  C18 UNL     1       2.697  62.377  68.393  0.00  0.00    +0.000 C 
ENDBRANCH  20  22
ENDBRANCH  18  20
ENDBRANCH   6  18
TORSDOF 6
ENDMDL
MODEL 6
REMARK VINA RESULT:    -7.186     19.406     22.545
REMARK INTER + INTRA:         -10.533
REMARK INTER:                  -8.994
REMARK INTRA:                  -1.539
REMARK UNBOUND:                -1.037
REMARK  Name = laboratorio_evolutivo\Gen6_Mutante_7.pdb
REMARK  11 active torsions:
REMARK  status: ('A' for Active; 'I' for Inactive)
REMARK    1  A    between atoms: C1_1  and  C2_2
REMARK    2  A    between atoms: C4_4  and  C5_5
REMARK    3  A    between atoms: N1_6  and  O1_7
REMARK    4  A    between atoms: C6_8  and  C7_9
REMARK    5  A    between atoms: C10_12  and  C11_13
REMARK    6  A    between atoms: C12_14  and  C13_15
REMARK    7  A    between atoms: C13_15  and  C14_17
REMARK    8  A    between atoms: C14_17  and  C15_18
REMARK    9  A    between atoms: C14_17  and  C16_19
REMARK   10  A    between atoms: C16_19  and  C17_20
REMARK   11  A    between atoms: C16_19  and  C18_21
REMARK                            x       y       z     vdW  Elec       q    Type
REMARK                         _______ _______ _______ _____ _____    ______ ____
ROOT
ATOM      1  C7  UNL     1      14.390  50.533  58.974  0.00  0.00    +0.000 C 
ATOM      2  C8  UNL     1      14.148  52.012  58.638  0.00  0.00    +0.000 C 
ATOM      3  C9  UNL     1      14.045  52.672  60.003  0.00  0.00    +0.000 C 
ATOM      4  C10 UNL     1      15.140  51.996  60.831  0.00  0.00    +0.000 C 
ATOM      5  C11 UNL     1      16.482  52.716  60.695  0.00  0.00    +0.000 C 
ATOM      6  C12 UNL     1      15.219  50.551  60.287  0.00  0.00    +0.000 C 
ENDROOT
BRANCH   1  11
ATOM      7  C1  UNL     1      17.194  47.583  54.854  0.00  0.00    +0.000 C 
ATOM      8  C2  UNL     1      16.426  48.332  55.901  0.00  0.00    +0.000 C 
ATOM      9  C3  UNL     1      15.061  48.143  56.037  0.00  0.00    +0.000 C 
ATOM     10  C4  UNL     1      14.376  48.848  57.030  0.00  0.00    +0.000 C 
ATOM     11  C6  UNL     1      15.054  49.755  57.857  0.00  0.00    +0.000 C 
ATOM     12  C19 UNL     1      16.425  49.862  57.634  0.00  0.00    +0.000 C 
ATOM     13  N2  UNL     1      17.116  49.181  56.691  0.00  0.00    +0.000 NA
BRANCH  10  14
ATOM     14  C5  UNL     1      12.915  48.651  57.136  0.00  0.00    +0.000 C 
ATOM     15  N1  UNL     1      11.971  49.398  56.647  0.00  0.00    +0.000 NA
BRANCH  15  16
ATOM     16  O1  UNL     1      12.459  50.448  55.867  0.00  0.00    +0.000 OA
ATOM     17  H   UNL     1      11.889  51.147  55.610  0.00  0.00    +0.000 HD
ENDBRANCH  15  16
ENDBRANCH  10  14
ENDBRANCH   1  11
BRANCH   6  18
ATOM     18  C13 UNL     1      14.654  49.593  61.338  0.00  0.00    +0.000 C 
ATOM     19  O2  UNL     1      13.723  49.923  62.075  0.00  0.00    +0.000 OA
BRANCH  18  20
ATOM     20  C14 UNL     1      15.347  48.234  61.481  0.00  0.00    +0.000 C 
ATOM     21  C15 UNL     1      16.128  48.201  62.796  0.00  0.00    +0.000 C 
BRANCH  20  22
ATOM     22  C16 UNL     1      14.375  47.040  61.335  0.00  0.00    +0.000 C 
ATOM     23  C17 UNL     1      14.696  45.923  62.330  0.00  0.00    +0.000 C 
ATOM     24  C18 UNL     1      14.292  46.462  59.919  0.00  0.00    +0.000 C 
ENDBRANCH  20  22
ENDBRANCH  18  20
ENDBRANCH   6  18
TORSDOF 6
ENDMDL
MODEL 7
REMARK VINA RESULT:    -7.080      2.708      5.455
REMARK INTER + INTRA:         -10.393
REMARK INTER:                  -9.554
REMARK INTRA:                  -0.839
REMARK UNBOUND:                -1.037
REMARK  Name = laboratorio_evolutivo\Gen6_Mutante_7.pdb
REMARK  11 active torsions:
REMARK  status: ('A' for Active; 'I' for Inactive)
REMARK    1  A    between atoms: C1_1  and  C2_2
REMARK    2  A    between atoms: C4_4  and  C5_5
REMARK    3  A    between atoms: N1_6  and  O1_7
REMARK    4  A    between atoms: C6_8  and  C7_9
REMARK    5  A    between atoms: C10_12  and  C11_13
REMARK    6  A    between atoms: C12_14  and  C13_15
REMARK    7  A    between atoms: C13_15  and  C14_17
REMARK    8  A    between atoms: C14_17  and  C15_18
REMARK    9  A    between atoms: C14_17  and  C16_19
REMARK   10  A    between atoms: C16_19  and  C17_20
REMARK   11  A    between atoms: C16_19  and  C18_21
REMARK                            x       y       z     vdW  Elec       q    Type
REMARK                         _______ _______ _______ _____ _____    ______ ____
ROOT
ATOM      1  C7  UNL     1       1.729  60.700  70.462  0.00  0.00    +0.000 C 
ATOM      2  C8  UNL     1       2.642  60.631  69.228  0.00  0.00    +0.000 C 
ATOM      3  C9  UNL     1       2.259  61.871  68.437  0.00  0.00    +0.000 C 
ATOM      4  C10 UNL     1       2.087  62.958  69.499  0.00  0.00    +0.000 C 
ATOM      5  C11 UNL     1       3.404  63.676  69.798  0.00  0.00    +0.000 C 
ATOM      6  C12 UNL     1       1.556  62.217  70.748  0.00  0.00    +0.000 C 
ENDROOT
BRANCH   1  11
ATOM      7  C1  UNL     1       3.575  57.478  74.907  0.00  0.00    +0.000 C 
ATOM      8  C2  UNL     1       3.131  58.346  73.768  0.00  0.00    +0.000 C 
ATOM      9  C3  UNL     1       3.887  59.442  73.388  0.00  0.00    +0.000 C 
ATOM     10  C4  UNL     1       3.450  60.224  72.314  0.00  0.00    +0.000 C 
ATOM     11  C6  UNL     1       2.253  59.922  71.651  0.00  0.00    +0.000 C 
ATOM     12  C19 UNL     1       1.577  58.794  72.116  0.00  0.00    +0.000 C 
ATOM     13  N2  UNL     1       1.983  58.011  73.141  0.00  0.00    +0.000 NA
BRANCH  10  14
ATOM     14  C5  UNL     1       4.259  61.405  71.946  0.00  0.00    +0.000 C 
ATOM     15  N1  UNL     1       5.309  61.447  71.180  0.00  0.00    +0.000 NA
BRANCH  15  16
ATOM     16  O1  UNL     1       5.605  60.213  70.598  0.00  0.00    +0.000 OA
ATOM     17  H   UNL     1       6.495  59.925  70.537  0.00  0.00    +0.000 HD
ENDBRANCH  15  16
ENDBRANCH  10  14
ENDBRANCH   1  11
BRANCH   6  18
ATOM     18  C13 UNL     1       0.091  62.597  70.967  0.00  0.00    +0.000 C 
ATOM     19  O2  UNL     1      -0.585  63.098  70.066  0.00  0.00    +0.000 OA
BRANCH  18  20
ATOM     20  C14 UNL     1      -0.475  62.397  72.376  0.00  0.00    +0.000 C 
ATOM     21  C15 UNL     1      -1.275  61.093  72.419  0.00  0.00    +0.000 C 
BRANCH  20  22
ATOM     22  C16 UNL     1       0.606  62.470  73.480  0.00  0.00    +0.000 C 
ATOM     23  C17 UNL     1       0.461  61.330  74.491  0.00  0.00    +0.000 C 
ATOM     24  C18 UNL     1       0.665  63.811  74.218  0.00  0.00    +0.000 C 
ENDBRANCH  20  22
ENDBRANCH  18  20
ENDBRANCH   6  18
TORSDOF 6
ENDMDL
MODEL 8
REMARK VINA RESULT:    -7.023      3.410      6.389
REMARK INTER + INTRA:         -10.318
REMARK INTER:                  -9.021
REMARK INTRA:                  -1.297
REMARK UNBOUND:                -1.037
REMARK  Name = laboratorio_evolutivo\Gen6_Mutante_7.pdb
REMARK  11 active torsions:
REMARK  status: ('A' for Active; 'I' for Inactive)
REMARK    1  A    between atoms: C1_1  and  C2_2
REMARK    2  A    between atoms: C4_4  and  C5_5
REMARK    3  A    between atoms: N1_6  and  O1_7
REMARK    4  A    between atoms: C6_8  and  C7_9
REMARK    5  A    between atoms: C10_12  and  C11_13
REMARK    6  A    between atoms: C12_14  and  C13_15
REMARK    7  A    between atoms: C13_15  and  C14_17
REMARK    8  A    between atoms: C14_17  and  C15_18
REMARK    9  A    between atoms: C14_17  and  C16_19
REMARK   10  A    between atoms: C16_19  and  C17_20
REMARK   11  A    between atoms: C16_19  and  C18_21
REMARK                            x       y       z     vdW  Elec       q    Type
REMARK                         _______ _______ _______ _____ _____    ______ ____
ROOT
ATOM      1  C7  UNL     1       2.354  60.950  72.466  0.00  0.00    +0.000 C 
ATOM      2  C8  UNL     1       3.888  60.888  72.406  0.00  0.00    +0.000 C 
ATOM      3  C9  UNL     1       4.187  59.406  72.555  0.00  0.00    +0.000 C 
ATOM      4  C10 UNL     1       3.120  58.718  71.702  0.00  0.00    +0.000 C 
ATOM      5  C11 UNL     1       3.568  58.560  70.248  0.00  0.00    +0.000 C 
ATOM      6  C12 UNL     1       1.874  59.627  71.810  0.00  0.00    +0.000 C 
ENDROOT
BRANCH   1  11
ATOM      7  C1  UNL     1       0.224  65.582  69.719  0.00  0.00    +0.000 C 
ATOM      8  C2  UNL     1       0.748  64.395  70.469  0.00  0.00    +0.000 C 
ATOM      9  C3  UNL     1       0.158  64.003  71.659  0.00  0.00    +0.000 C 
ATOM     10  C4  UNL     1       0.664  62.884  72.327  0.00  0.00    +0.000 C 
ATOM     11  C6  UNL     1       1.768  62.187  71.818  0.00  0.00    +0.000 C 
ATOM     12  C19 UNL     1       2.278  62.667  70.613  0.00  0.00    +0.000 C 
ATOM     13  N2  UNL     1       1.800  63.737  69.937  0.00  0.00    +0.000 NA
BRANCH  10  14
ATOM     14  C5  UNL     1       0.036  62.503  73.610  0.00  0.00    +0.000 C 
ATOM     15  N1  UNL     1       0.428  62.806  74.812  0.00  0.00    +0.000 NA
BRANCH  15  16
ATOM     16  O1  UNL     1       1.528  63.666  74.823  0.00  0.00    +0.000 OA
ATOM     17  H   UNL     1       2.388  63.325  74.972  0.00  0.00    +0.000 HD
ENDBRANCH  15  16
ENDBRANCH  10  14
ENDBRANCH   1  11
BRANCH   6  18
ATOM     18  C13 UNL     1       0.814  58.917  72.654  0.00  0.00    +0.000 C 
ATOM     19  O2  UNL     1      -0.373  59.249  72.608  0.00  0.00    +0.000 OA
BRANCH  18  20
ATOM     20  C14 UNL     1       1.304  57.828  73.612  0.00  0.00    +0.000 C 
ATOM     21  C15 UNL     1       0.913  58.200  75.044  0.00  0.00    +0.000 C 
BRANCH  20  22
ATOM     22  C16 UNL     1       0.830  56.411  73.215  0.00  0.00    +0.000 C 
ATOM     23  C17 UNL     1      -0.573  56.112  73.748  0.00  0.00    +0.000 C 
ATOM     24  C18 UNL     1       1.787  55.287  73.620  0.00  0.00    +0.000 C 
ENDBRANCH  20  22
ENDBRANCH  18  20
ENDBRANCH   6  18
TORSDOF 6
ENDMDL
MODEL 9
REMARK VINA RESULT:    -6.931      3.845      6.684
REMARK INTER + INTRA:         -10.197
REMARK INTER:                  -8.506
REMARK INTRA:                  -1.690
REMARK UNBOUND:                -1.037
REMARK  Name = laboratorio_evolutivo\Gen6_Mutante_7.pdb
REMARK  11 active torsions:
REMARK  status: ('A' for Active; 'I' for Inactive)
REMARK    1  A    between atoms: C1_1  and  C2_2
REMARK    2  A    between atoms: C4_4  and  C5_5
REMARK    3  A    between atoms: N1_6  and  O1_7
REMARK    4  A    between atoms: C6_8  and  C7_9
REMARK    5  A    between atoms: C10_12  and  C11_13
REMARK    6  A    between atoms: C12_14  and  C13_15
REMARK    7  A    between atoms: C13_15  and  C14_17
REMARK    8  A    between atoms: C14_17  and  C15_18
REMARK    9  A    between atoms: C14_17  and  C16_19
REMARK   10  A    between atoms: C16_19  and  C17_20
REMARK   11  A    between atoms: C16_19  and  C18_21
REMARK                            x       y       z     vdW  Elec       q    Type
REMARK                         _______ _______ _______ _____ _____    ______ ____
ROOT
ATOM      1  C7  UNL     1       2.716  59.252  71.369  0.00  0.00    +0.000 C 
ATOM      2  C8  UNL     1       2.023  58.187  70.506  0.00  0.00    +0.000 C 
ATOM      3  C9  UNL     1       1.927  56.988  71.434  0.00  0.00    +0.000 C 
ATOM      4  C10 UNL     1       1.543  57.590  72.788  0.00  0.00    +0.000 C 
ATOM      5  C11 UNL     1       0.027  57.710  72.948  0.00  0.00    +0.000 C 
ATOM      6  C12 UNL     1       2.223  58.978  72.816  0.00  0.00    +0.000 C 
ENDROOT
BRANCH   1  11
ATOM      7  C1  UNL     1       1.518  64.702  69.817  0.00  0.00    +0.000 C 
ATOM      8  C2  UNL     1       1.870  63.294  70.193  0.00  0.00    +0.000 C 
ATOM      9  C3  UNL     1       3.131  62.791  69.919  0.00  0.00    +0.000 C 
ATOM     10  C4  UNL     1       3.429  61.477  70.293  0.00  0.00    +0.000 C 
ATOM     11  C6  UNL     1       2.461  60.672  70.908  0.00  0.00    +0.000 C 
ATOM     12  C19 UNL     1       1.229  61.283  71.137  0.00  0.00    +0.000 C 
ATOM     13  N2  UNL     1       0.917  62.556  70.801  0.00  0.00    +0.000 NA
BRANCH  10  14
ATOM     14  C5  UNL     1       4.772  60.954  69.964  0.00  0.00    +0.000 C 
ATOM     15  N1  UNL     1       5.824  60.918  70.727  0.00  0.00    +0.000 NA
BRANCH  15  16
ATOM     16  O1  UNL     1       5.567  61.361  72.027  0.00  0.00    +0.000 OA
ATOM     17  H   UNL     1       6.276  61.622  72.582  0.00  0.00    +0.000 HD
ENDBRANCH  15  16
ENDBRANCH  10  14
ENDBRANCH   1  11
BRANCH   6  18
ATOM     18  C13 UNL     1       3.376  58.947  73.821  0.00  0.00    +0.000 C 
ATOM     19  O2  UNL     1       4.486  59.404  73.541  0.00  0.00    +0.000 OA
BRANCH  18  20
ATOM     20  C14 UNL     1       3.109  58.255  75.161  0.00  0.00    +0.000 C 
ATOM     21  C15 UNL     1       4.282  57.330  75.495  0.00  0.00    +0.000 C 
BRANCH  20  22
ATOM     22  C16 UNL     1       2.790  59.248  76.303  0.00  0.00    +0.000 C 
ATOM     23  C17 UNL     1       3.438  58.822  77.623  0.00  0.00    +0.000 C 
ATOM     24  C18 UNL     1       1.295  59.501  76.520  0.00  0.00    +0.000 C 
ENDBRANCH  20  22
ENDBRANCH  18  20
ENDBRANCH   6  18
TORSDOF 6
ENDMDL
