MODEL 1
REMARK VINA RESULT:    -9.369      0.000      0.000
REMARK INTER + INTRA:         -13.642
REMARK INTER:                 -12.929
REMARK INTRA:                  -0.712
REMARK UNBOUND:                -0.712
REMARK  Name = laboratorio_evolutivo\Gen6_Mutante_3.pdb
REMARK  11 active torsions:
REMARK  status: ('A' for Active; 'I' for Inactive)
REMARK    1  A    between atoms: C1_1  and  C2_2
REMARK    2  A    between atoms: C2_2  and  C3_3
REMARK    3  A    between atoms: C6_6  and  C7_7
REMARK    4  A    between atoms: C9_10  and  C10_11
REMARK    5  A    between atoms: C12_13  and  C13_14
REMARK    6  A    between atoms: N2_15  and  O1_16
REMARK    7  A    between atoms: C14_17  and  C15_18
REMARK    8  A    between atoms: C15_18  and  C16_20
REMARK    9  A    between atoms: C16_20  and  C17_21
REMARK   10  A    between atoms: C17_21  and  C18_22
REMARK   11  A    between atoms: C17_21  and  C19_23
REMARK                            x       y       z     vdW  Elec       q    Type
REMARK                         _______ _______ _______ _____ _____    ______ ____
ROOT
ATOM      1  C3  UNL     1       3.683  68.901  62.531  0.00  0.00    +0.000 C 
ATOM      2  C4  UNL     1       5.187  69.245  62.617  0.00  0.00    +0.000 C 
ATOM      3  C5  UNL     1       5.648  68.834  64.022  0.00  0.00    +0.000 C 
ATOM      4  C6  UNL     1       4.374  68.363  64.743  0.00  0.00    +0.000 C 
ATOM      5  C14 UNL     1       3.477  67.815  63.610  0.00  0.00    +0.000 C 
ENDROOT
BRANCH   4   6
ATOM      6  C7  UNL     1       4.537  67.501  65.969  0.00  0.00    +0.000 C 
ATOM      7  C8  UNL     1       5.592  66.612  66.123  0.00  0.00    +0.000 C 
ATOM      8  N1  UNL     1       5.756  65.783  67.186  0.00  0.00    +0.000 NA
ATOM      9  C9  UNL     1       4.861  65.848  68.194  0.00  0.00    +0.000 C 
ATOM     10  C10 UNL     1       5.079  64.943  69.370  0.00  0.00    +0.000 C 
ATOM     11  C11 UNL     1       3.799  66.735  68.175  0.00  0.00    +0.000 C 
ATOM     12  C12 UNL     1       3.639  67.544  67.051  0.00  0.00    +0.000 C 
BRANCH  12  13
ATOM     13  C13 UNL     1       2.473  68.448  67.047  0.00  0.00    +0.000 C 
ATOM     14  N2  UNL     1       1.266  68.155  66.651  0.00  0.00    +0.000 NA
BRANCH  14  15
ATOM     15  O1  UNL     1       1.190  66.827  66.198  0.00  0.00    +0.000 OA
ATOM     16  H   UNL     1       1.609  66.143  66.682  0.00  0.00    +0.000 HD
ENDBRANCH  14  15
ENDBRANCH  12  13
ENDBRANCH   4   6
BRANCH   1  18
ATOM     17  C1  UNL     1       1.744  68.903  60.886  0.00  0.00    +0.000 C 
ATOM     18  C2  UNL     1       3.205  68.537  61.118  0.00  0.00    +0.000 C 
ENDBRANCH   1  18
BRANCH   5  19
ATOM     19  C15 UNL     1       3.855  66.425  63.077  0.00  0.00    +0.000 C 
ATOM     20  O2  UNL     1       4.661  66.269  62.154  0.00  0.00    +0.000 OA
BRANCH  19  21
ATOM     21  C16 UNL     1       3.152  65.222  63.692  0.00  0.00    +0.000 C 
BRANCH  21  22
ATOM     22  C17 UNL     1       4.122  64.228  64.340  0.00  0.00    +0.000 C 
ATOM     23  C18 UNL     1       3.474  63.594  65.563  0.00  0.00    +0.000 C 
ATOM     24  C19 UNL     1       4.534  63.124  63.359  0.00  0.00    +0.000 C 
ENDBRANCH  21  22
ENDBRANCH  19  21
ENDBRANCH   5  19
TORSDOF 7
ENDMDL
MODEL 2
REMARK VINA RESULT:    -8.928      2.216      6.100
REMARK INTER + INTRA:         -13.033
REMARK INTER:                 -12.138
REMARK INTRA:                  -0.895
REMARK UNBOUND:                -0.712
REMARK  Name = laboratorio_evolutivo\Gen6_Mutante_3.pdb
REMARK  11 active torsions:
REMARK  status: ('A' for Active; 'I' for Inactive)
REMARK    1  A    between atoms: C1_1  and  C2_2
REMARK    2  A    between atoms: C2_2  and  C3_3
REMARK    3  A    between atoms: C6_6  and  C7_7
REMARK    4  A    between atoms: C9_10  and  C10_11
REMARK    5  A    between atoms: C12_13  and  C13_14
REMARK    6  A    between atoms: N2_15  and  O1_16
REMARK    7  A    between atoms: C14_17  and  C15_18
REMARK    8  A    between atoms: C15_18  and  C16_20
REMARK    9  A    between atoms: C16_20  and  C17_21
REMARK   10  A    between atoms: C17_21  and  C18_22
REMARK   11  A    between atoms: C17_21  and  C19_23
REMARK                            x       y       z     vdW  Elec       q    Type
REMARK                         _______ _______ _______ _____ _____    ______ ____
ROOT
ATOM      1  C3  UNL     1       3.485  64.429  68.671  0.00  0.00    +0.000 C 
ATOM      2  C4  UNL     1       4.910  64.864  69.082  0.00  0.00    +0.000 C 
ATOM      3  C5  UNL     1       5.537  65.523  67.846  0.00  0.00    +0.000 C 
ATOM      4  C6  UNL     1       4.495  65.356  66.727  0.00  0.00    +0.000 C 
ATOM      5  C14 UNL     1       3.139  65.336  67.469  0.00  0.00    +0.000 C 
ENDROOT
BRANCH   4   6
ATOM      6  C7  UNL     1       4.605  66.255  65.521  0.00  0.00    +0.000 C 
ATOM      7  C8  UNL     1       5.095  67.551  65.598  0.00  0.00    +0.000 C 
ATOM      8  N1  UNL     1       5.171  68.413  64.551  0.00  0.00    +0.000 NA
ATOM      9  C9  UNL     1       4.788  67.977  63.334  0.00  0.00    +0.000 C 
ATOM     10  C10 UNL     1       4.907  68.938  62.187  0.00  0.00    +0.000 C 
ATOM     11  C11 UNL     1       4.334  66.686  63.126  0.00  0.00    +0.000 C 
ATOM     12  C12 UNL     1       4.233  65.840  64.230  0.00  0.00    +0.000 C 
BRANCH  12  13
ATOM     13  C13 UNL     1       3.708  64.485  63.979  0.00  0.00    +0.000 C 
ATOM     14  N2  UNL     1       4.322  63.518  63.356  0.00  0.00    +0.000 NA
BRANCH  14  15
ATOM     15  O1  UNL     1       5.594  63.924  62.920  0.00  0.00    +0.000 OA
ATOM     16  H   UNL     1       5.778  64.834  62.793  0.00  0.00    +0.000 HD
ENDBRANCH  14  15
ENDBRANCH  12  13
ENDBRANCH   4   6
BRANCH   1  18
ATOM     17  C1  UNL     1       1.520  63.248  69.772  0.00  0.00    +0.000 C 
ATOM     18  C2  UNL     1       2.472  64.437  69.825  0.00  0.00    +0.000 C 
ENDBRANCH   1  18
BRANCH   5  19
ATOM     19  C15 UNL     1       2.618  66.703  67.938  0.00  0.00    +0.000 C 
ATOM     20  O2  UNL     1       3.300  67.467  68.629  0.00  0.00    +0.000 OA
BRANCH  19  21
ATOM     21  C16 UNL     1       1.189  67.074  67.567  0.00  0.00    +0.000 C 
BRANCH  21  22
ATOM     22  C17 UNL     1       1.106  68.307  66.659  0.00  0.00    +0.000 C 
ATOM     23  C18 UNL     1       1.341  67.901  65.211  0.00  0.00    +0.000 C 
ATOM     24  C19 UNL     1      -0.257  68.999  66.774  0.00  0.00    +0.000 C 
ENDBRANCH  21  22
ENDBRANCH  19  21
ENDBRANCH   5  19
TORSDOF 7
ENDMDL
MODEL 3
REMARK VINA RESULT:    -8.722      1.929      5.476
REMARK INTER + INTRA:         -12.748
REMARK INTER:                 -13.293
REMARK INTRA:                   0.545
REMARK UNBOUND:                -0.712
REMARK  Name = laboratorio_evolutivo\Gen6_Mutante_3.pdb
REMARK  11 active torsions:
REMARK  status: ('A' for Active; 'I' for Inactive)
REMARK    1  A    between atoms: C1_1  and  C2_2
REMARK    2  A    between atoms: C2_2  and  C3_3
REMARK    3  A    between atoms: C6_6  and  C7_7
REMARK    4  A    between atoms: C9_10  and  C10_11
REMARK    5  A    between atoms: C12_13  and  C13_14
REMARK    6  A    between atoms: N2_15  and  O1_16
REMARK    7  A    between atoms: C14_17  and  C15_18
REMARK    8  A    between atoms: C15_18  and  C16_20
REMARK    9  A    between atoms: C16_20  and  C17_21
REMARK   10  A    between atoms: C17_21  and  C18_22
REMARK   11  A    between atoms: C17_21  and  C19_23
REMARK                            x       y       z     vdW  Elec       q    Type
REMARK                         _______ _______ _______ _____ _____    ______ ____
ROOT
ATOM      1  C3  UNL     1       5.032  66.506  67.532  0.00  0.00    +0.000 C 
ATOM      2  C4  UNL     1       3.828  67.026  68.350  0.00  0.00    +0.000 C 
ATOM      3  C5  UNL     1       2.940  67.804  67.370  0.00  0.00    +0.000 C 
ATOM      4  C6  UNL     1       3.709  67.800  66.038  0.00  0.00    +0.000 C 
ATOM      5  C14 UNL     1       4.525  66.488  66.074  0.00  0.00    +0.000 C 
ENDROOT
BRANCH   4   6
ATOM      6  C7  UNL     1       2.936  68.096  64.777  0.00  0.00    +0.000 C 
ATOM      7  C8  UNL     1       1.577  67.842  64.658  0.00  0.00    +0.000 C 
ATOM      8  N1  UNL     1       0.848  68.047  63.530  0.00  0.00    +0.000 NA
ATOM      9  C9  UNL     1       1.467  68.578  62.455  0.00  0.00    +0.000 C 
ATOM     10  C10 UNL     1       0.635  68.822  61.231  0.00  0.00    +0.000 C 
ATOM     11  C11 UNL     1       2.807  68.922  62.477  0.00  0.00    +0.000 C 
ATOM     12  C12 UNL     1       3.534  68.662  63.637  0.00  0.00    +0.000 C 
BRANCH  12  13
ATOM     13  C13 UNL     1       4.969  69.004  63.611  0.00  0.00    +0.000 C 
ATOM     14  N2  UNL     1       5.709  69.159  62.548  0.00  0.00    +0.000 NA
BRANCH  14  15
ATOM     15  O1  UNL     1       4.964  68.948  61.376  0.00  0.00    +0.000 OA
ATOM     16  H   UNL     1       4.781  68.076  61.089  0.00  0.00    +0.000 HD
ENDBRANCH  14  15
ENDBRANCH  12  13
ENDBRANCH   4   6
BRANCH   1  18
ATOM     17  C1  UNL     1       5.069  64.807  69.424  0.00  0.00    +0.000 C 
ATOM     18  C2  UNL     1       5.615  65.184  68.052  0.00  0.00    +0.000 C 
ENDBRANCH   1  18
BRANCH   5  19
ATOM     19  C15 UNL     1       3.733  65.205  65.778  0.00  0.00    +0.000 C 
ATOM     20  O2  UNL     1       3.354  64.442  66.673  0.00  0.00    +0.000 OA
BRANCH  19  21
ATOM     21  C16 UNL     1       3.468  64.864  64.318  0.00  0.00    +0.000 C 
BRANCH  21  22
ATOM     22  C17 UNL     1       4.753  64.746  63.488  0.00  0.00    +0.000 C 
ATOM     23  C18 UNL     1       4.998  63.290  63.119  0.00  0.00    +0.000 C 
ATOM     24  C19 UNL     1       4.672  65.584  62.207  0.00  0.00    +0.000 C 
ENDBRANCH  21  22
ENDBRANCH  19  21
ENDBRANCH   5  19
TORSDOF 7
ENDMDL
MODEL 4
REMARK VINA RESULT:    -8.691      2.252      3.433
REMARK INTER + INTRA:         -12.706
REMARK INTER:                 -11.928
REMARK INTRA:                  -0.778
REMARK UNBOUND:                -0.712
REMARK  Name = laboratorio_evolutivo\Gen6_Mutante_3.pdb
REMARK  11 active torsions:
REMARK  status: ('A' for Active; 'I' for Inactive)
REMARK    1  A    between atoms: C1_1  and  C2_2
REMARK    2  A    between atoms: C2_2  and  C3_3
REMARK    3  A    between atoms: C6_6  and  C7_7
REMARK    4  A    between atoms: C9_10  and  C10_11
REMARK    5  A    between atoms: C12_13  and  C13_14
REMARK    6  A    between atoms: N2_15  and  O1_16
REMARK    7  A    between atoms: C14_17  and  C15_18
REMARK    8  A    between atoms: C15_18  and  C16_20
REMARK    9  A    between atoms: C16_20  and  C17_21
REMARK   10  A    between atoms: C17_21  and  C18_22
REMARK   11  A    between atoms: C17_21  and  C19_23
REMARK                            x       y       z     vdW  Elec       q    Type
REMARK                         _______ _______ _______ _____ _____    ______ ____
ROOT
ATOM      1  C3  UNL     1       4.591  68.654  64.212  0.00  0.00    +0.000 C 
ATOM      2  C4  UNL     1       5.770  67.711  64.545  0.00  0.00    +0.000 C 
ATOM      3  C5  UNL     1       5.415  67.022  65.870  0.00  0.00    +0.000 C 
ATOM      4  C6  UNL     1       4.092  67.664  66.317  0.00  0.00    +0.000 C 
ATOM      5  C14 UNL     1       3.398  68.065  64.995  0.00  0.00    +0.000 C 
ENDROOT
BRANCH   4   6
ATOM      6  C7  UNL     1       3.259  66.926  67.335  0.00  0.00    +0.000 C 
ATOM      7  C8  UNL     1       3.625  65.687  67.843  0.00  0.00    +0.000 C 
ATOM      8  N1  UNL     1       2.888  64.964  68.724  0.00  0.00    +0.000 NA
ATOM      9  C9  UNL     1       1.735  65.495  69.183  0.00  0.00    +0.000 C 
ATOM     10  C10 UNL     1       0.952  64.690  70.177  0.00  0.00    +0.000 C 
ATOM     11  C11 UNL     1       1.297  66.748  68.788  0.00  0.00    +0.000 C 
ATOM     12  C12 UNL     1       2.059  67.445  67.853  0.00  0.00    +0.000 C 
BRANCH  12  13
ATOM     13  C13 UNL     1       1.541  68.759  67.425  0.00  0.00    +0.000 C 
ATOM     14  N2  UNL     1       1.836  69.916  67.948  0.00  0.00    +0.000 NA
BRANCH  14  15
ATOM     15  O1  UNL     1       2.734  69.775  69.018  0.00  0.00    +0.000 OA
ATOM     16  H   UNL     1       2.618  70.282  69.797  0.00  0.00    +0.000 HD
ENDBRANCH  14  15
ENDBRANCH  12  13
ENDBRANCH   4   6
BRANCH   1  18
ATOM     17  C1  UNL     1       5.670  68.889  61.922  0.00  0.00    +0.000 C 
ATOM     18  C2  UNL     1       4.364  68.863  62.708  0.00  0.00    +0.000 C 
ENDBRANCH   1  18
BRANCH   5  19
ATOM     19  C15 UNL     1       2.737  66.917  64.218  0.00  0.00    +0.000 C 
ATOM     20  O2  UNL     1       3.394  66.080  63.591  0.00  0.00    +0.000 OA
BRANCH  19  21
ATOM     21  C16 UNL     1       1.215  66.870  64.194  0.00  0.00    +0.000 C 
BRANCH  21  22
ATOM     22  C17 UNL     1       0.575  68.248  63.985  0.00  0.00    +0.000 C 
ATOM     23  C18 UNL     1       0.472  68.550  62.497  0.00  0.00    +0.000 C 
ATOM     24  C19 UNL     1      -0.821  68.320  64.613  0.00  0.00    +0.000 C 
ENDBRANCH  21  22
ENDBRANCH  19  21
ENDBRANCH   5  19
TORSDOF 7
ENDMDL
MODEL 5
REMARK VINA RESULT:    -8.547      1.985      2.761
REMARK INTER + INTRA:         -12.507
REMARK INTER:                 -12.348
REMARK INTRA:                  -0.159
REMARK UNBOUND:                -0.712
REMARK  Name = laboratorio_evolutivo\Gen6_Mutante_3.pdb
REMARK  11 active torsions:
REMARK  status: ('A' for Active; 'I' for Inactive)
REMARK    1  A    between atoms: C1_1  and  C2_2
REMARK    2  A    between atoms: C2_2  and  C3_3
REMARK    3  A    between atoms: C6_6  and  C7_7
REMARK    4  A    between atoms: C9_10  and  C10_11
REMARK    5  A    between atoms: C12_13  and  C13_14
REMARK    6  A    between atoms: N2_15  and  O1_16
REMARK    7  A    between atoms: C14_17  and  C15_18
REMARK    8  A    between atoms: C15_18  and  C16_20
REMARK    9  A    between atoms: C16_20  and  C17_21
REMARK   10  A    between atoms: C17_21  and  C18_22
REMARK   11  A    between atoms: C17_21  and  C19_23
REMARK                            x       y       z     vdW  Elec       q    Type
REMARK                         _______ _______ _______ _____ _____    ______ ____
ROOT
ATOM      1  C3  UNL     1       3.595  68.716  64.123  0.00  0.00    +0.000 C 
ATOM      2  C4  UNL     1       4.930  68.288  64.774  0.00  0.00    +0.000 C 
ATOM      3  C5  UNL     1       4.581  67.749  66.168  0.00  0.00    +0.000 C 
ATOM      4  C6  UNL     1       3.068  67.979  66.323  0.00  0.00    +0.000 C 
ATOM      5  C14 UNL     1       2.522  67.902  64.879  0.00  0.00    +0.000 C 
ENDROOT
BRANCH   4   6
ATOM      6  C7  UNL     1       2.339  67.185  67.377  0.00  0.00    +0.000 C 
ATOM      7  C8  UNL     1       2.971  66.232  68.164  0.00  0.00    +0.000 C 
ATOM      8  N1  UNL     1       2.349  65.461  69.093  0.00  0.00    +0.000 NA
ATOM      9  C9  UNL     1       1.032  65.654  69.309  0.00  0.00    +0.000 C 
ATOM     10  C10 UNL     1       0.373  64.810  70.359  0.00  0.00    +0.000 C 
ATOM     11  C11 UNL     1       0.310  66.615  68.621  0.00  0.00    +0.000 C 
ATOM     12  C12 UNL     1       0.971  67.362  67.648  0.00  0.00    +0.000 C 
BRANCH  12  13
ATOM     13  C13 UNL     1       0.161  68.347  66.907  0.00  0.00    +0.000 C 
ATOM     14  N2  UNL     1      -0.748  68.086  66.010  0.00  0.00    +0.000 NA
BRANCH  14  15
ATOM     15  O1  UNL     1      -0.878  66.701  65.808  0.00  0.00    +0.000 OA
ATOM     16  H   UNL     1      -0.761  66.110  66.525  0.00  0.00    +0.000 HD
ENDBRANCH  14  15
ENDBRANCH  12  13
ENDBRANCH   4   6
BRANCH   1  18
ATOM     17  C1  UNL     1       4.947  68.829  61.973  0.00  0.00    +0.000 C 
ATOM     18  C2  UNL     1       3.576  68.587  62.593  0.00  0.00    +0.000 C 
ENDBRANCH   1  18
BRANCH   5  19
ATOM     19  C15 UNL     1       2.387  66.488  64.295  0.00  0.00    +0.000 C 
ATOM     20  O2  UNL     1       1.295  65.921  64.183  0.00  0.00    +0.000 OA
BRANCH  19  21
ATOM     21  C16 UNL     1       3.669  65.765  63.901  0.00  0.00    +0.000 C 
BRANCH  21  22
ATOM     22  C17 UNL     1       3.568  64.242  64.049  0.00  0.00    +0.000 C 
ATOM     23  C18 UNL     1       4.669  63.570  63.242  0.00  0.00    +0.000 C 
ATOM     24  C19 UNL     1       3.684  63.813  65.516  0.00  0.00    +0.000 C 
ENDBRANCH  21  22
ENDBRANCH  19  21
ENDBRANCH   5  19
TORSDOF 7
ENDMDL
MODEL 6
REMARK VINA RESULT:    -8.502      2.334      5.286
REMARK INTER + INTRA:         -12.445
REMARK INTER:                 -13.063
REMARK INTRA:                   0.618
REMARK UNBOUND:                -0.712
REMARK  Name = laboratorio_evolutivo\Gen6_Mutante_3.pdb
REMARK  11 active torsions:
REMARK  status: ('A' for Active; 'I' for Inactive)
REMARK    1  A    between atoms: C1_1  and  C2_2
REMARK    2  A    between atoms: C2_2  and  C3_3
REMARK    3  A    between atoms: C6_6  and  C7_7
REMARK    4  A    between atoms: C9_10  and  C10_11
REMARK    5  A    between atoms: C12_13  and  C13_14
REMARK    6  A    between atoms: N2_15  and  O1_16
REMARK    7  A    between atoms: C14_17  and  C15_18
REMARK    8  A    between atoms: C15_18  and  C16_20
REMARK    9  A    between atoms: C16_20  and  C17_21
REMARK   10  A    between atoms: C17_21  and  C18_22
REMARK   11  A    between atoms: C17_21  and  C19_23
REMARK                            x       y       z     vdW  Elec       q    Type
REMARK                         _______ _______ _______ _____ _____    ______ ____
ROOT
ATOM      1  C3  UNL     1       4.314  66.605  68.181  0.00  0.00    +0.000 C 
ATOM      2  C4  UNL     1       2.916  66.208  68.706  0.00  0.00    +0.000 C 
ATOM      3  C5  UNL     1       1.898  66.798  67.721  0.00  0.00    +0.000 C 
ATOM      4  C6  UNL     1       2.732  67.608  66.715  0.00  0.00    +0.000 C 
ATOM      5  C14 UNL     1       4.095  66.880  66.678  0.00  0.00    +0.000 C 
ENDROOT
BRANCH   4   6
ATOM      6  C7  UNL     1       2.100  67.952  65.390  0.00  0.00    +0.000 C 
ATOM      7  C8  UNL     1       2.841  68.388  64.300  0.00  0.00    +0.000 C 
ATOM      8  N1  UNL     1       2.313  68.753  63.103  0.00  0.00    +0.000 NA
ATOM      9  C9  UNL     1       0.979  68.648  62.932  0.00  0.00    +0.000 C 
ATOM     10  C10 UNL     1       0.423  69.030  61.592  0.00  0.00    +0.000 C 
ATOM     11  C11 UNL     1       0.147  68.173  63.931  0.00  0.00    +0.000 C 
ATOM     12  C12 UNL     1       0.717  67.844  65.159  0.00  0.00    +0.000 C 
BRANCH  12  13
ATOM     13  C13 UNL     1      -0.205  67.381  66.214  0.00  0.00    +0.000 C 
ATOM     14  N2  UNL     1      -1.066  68.112  66.866  0.00  0.00    +0.000 NA
BRANCH  14  15
ATOM     15  O1  UNL     1      -1.016  69.451  66.446  0.00  0.00    +0.000 OA
ATOM     16  H   UNL     1      -1.162  70.141  67.062  0.00  0.00    +0.000 HD
ENDBRANCH  14  15
ENDBRANCH  12  13
ENDBRANCH   4   6
BRANCH   1  18
ATOM     17  C1  UNL     1       4.925  64.477  69.433  0.00  0.00    +0.000 C 
ATOM     18  C2  UNL     1       5.419  65.594  68.521  0.00  0.00    +0.000 C 
ENDBRANCH   1  18
BRANCH   5  19
ATOM     19  C15 UNL     1       4.129  65.576  65.866  0.00  0.00    +0.000 C 
ATOM     20  O2  UNL     1       3.517  64.562  66.219  0.00  0.00    +0.000 OA
BRANCH  19  21
ATOM     21  C16 UNL     1       5.000  65.549  64.617  0.00  0.00    +0.000 C 
BRANCH  21  22
ATOM     22  C17 UNL     1       4.261  65.021  63.382  0.00  0.00    +0.000 C 
ATOM     23  C18 UNL     1       4.567  65.903  62.180  0.00  0.00    +0.000 C 
ATOM     24  C19 UNL     1       4.661  63.577  63.062  0.00  0.00    +0.000 C 
ENDBRANCH  21  22
ENDBRANCH  19  21
ENDBRANCH   5  19
TORSDOF 7
ENDMDL
MODEL 7
REMARK VINA RESULT:    -8.002      2.907      4.545
REMARK INTER + INTRA:         -11.755
REMARK INTER:                 -10.979
REMARK INTRA:                  -0.776
REMARK UNBOUND:                -0.712
REMARK  Name = laboratorio_evolutivo\Gen6_Mutante_3.pdb
REMARK  11 active torsions:
REMARK  status: ('A' for Active; 'I' for Inactive)
REMARK    1  A    between atoms: C1_1  and  C2_2
REMARK    2  A    between atoms: C2_2  and  C3_3
REMARK    3  A    between atoms: C6_6  and  C7_7
REMARK    4  A    between atoms: C9_10  and  C10_11
REMARK    5  A    between atoms: C12_13  and  C13_14
REMARK    6  A    between atoms: N2_15  and  O1_16
REMARK    7  A    between atoms: C14_17  and  C15_18
REMARK    8  A    between atoms: C15_18  and  C16_20
REMARK    9  A    between atoms: C16_20  and  C17_21
REMARK   10  A    between atoms: C17_21  and  C18_22
REMARK   11  A    between atoms: C17_21  and  C19_23
REMARK                            x       y       z     vdW  Elec       q    Type
REMARK                         _______ _______ _______ _____ _____    ______ ____
ROOT
ATOM      1  C3  UNL     1       2.277  67.258  66.994  0.00  0.00    +0.000 C 
ATOM      2  C4  UNL     1       3.210  68.032  67.952  0.00  0.00    +0.000 C 
ATOM      3  C5  UNL     1       3.670  67.027  69.017  0.00  0.00    +0.000 C 
ATOM      4  C6  UNL     1       2.907  65.729  68.703  0.00  0.00    +0.000 C 
ATOM      5  C14 UNL     1       2.683  65.779  67.175  0.00  0.00    +0.000 C 
ENDROOT
BRANCH   4   6
ATOM      6  C7  UNL     1       3.441  64.441  69.278  0.00  0.00    +0.000 C 
ATOM      7  C8  UNL     1       4.791  64.237  69.527  0.00  0.00    +0.000 C 
ATOM      8  N1  UNL     1       5.324  63.081  70.000  0.00  0.00    +0.000 NA
ATOM      9  C9  UNL     1       4.490  62.064  70.295  0.00  0.00    +0.000 C 
ATOM     10  C10 UNL     1       5.099  60.807  70.843  0.00  0.00    +0.000 C 
ATOM     11  C11 UNL     1       3.118  62.172  70.140  0.00  0.00    +0.000 C 
ATOM     12  C12 UNL     1       2.608  63.359  69.616  0.00  0.00    +0.000 C 
BRANCH  12  13
ATOM     13  C13 UNL     1       1.147  63.424  69.425  0.00  0.00    +0.000 C 
ATOM     14  N2  UNL     1       0.255  63.656  70.347  0.00  0.00    +0.000 NA
BRANCH  14  15
ATOM     15  O1  UNL     1       0.858  63.837  71.603  0.00  0.00    +0.000 OA
ATOM     16  H   UNL     1       0.799  63.165  72.252  0.00  0.00    +0.000 HD
ENDBRANCH  14  15
ENDBRANCH  12  13
ENDBRANCH   4   6
BRANCH   1  18
ATOM     17  C1  UNL     1       3.398  68.802  65.313  0.00  0.00    +0.000 C 
ATOM     18  C2  UNL     1       2.291  67.782  65.550  0.00  0.00    +0.000 C 
ENDBRANCH   1  18
BRANCH   5  19
ATOM     19  C15 UNL     1       3.905  65.431  66.313  0.00  0.00    +0.000 C 
ATOM     20  O2  UNL     1       5.022  65.916  66.524  0.00  0.00    +0.000 OA
BRANCH  19  21
ATOM     21  C16 UNL     1       3.688  64.494  65.132  0.00  0.00    +0.000 C 
BRANCH  21  22
ATOM     22  C17 UNL     1       4.662  64.751  63.975  0.00  0.00    +0.000 C 
ATOM     23  C18 UNL     1       4.835  63.483  63.152  0.00  0.00    +0.000 C 
ATOM     24  C19 UNL     1       4.166  65.880  63.064  0.00  0.00    +0.000 C 
ENDBRANCH  21  22
ENDBRANCH  19  21
ENDBRANCH   5  19
TORSDOF 7
ENDMDL
MODEL 8
REMARK VINA RESULT:    -7.899      2.677      6.047
REMARK INTER + INTRA:         -11.613
REMARK INTER:                 -11.336
REMARK INTRA:                  -0.277
REMARK UNBOUND:                -0.712
REMARK  Name = laboratorio_evolutivo\Gen6_Mutante_3.pdb
REMARK  11 active torsions:
REMARK  status: ('A' for Active; 'I' for Inactive)
REMARK    1  A    between atoms: C1_1  and  C2_2
REMARK    2  A    between atoms: C2_2  and  C3_3
REMARK    3  A    between atoms: C6_6  and  C7_7
REMARK    4  A    between atoms: C9_10  and  C10_11
REMARK    5  A    between atoms: C12_13  and  C13_14
REMARK    6  A    between atoms: N2_15  and  O1_16
REMARK    7  A    between atoms: C14_17  and  C15_18
REMARK    8  A    between atoms: C15_18  and  C16_20
REMARK    9  A    between atoms: C16_20  and  C17_21
REMARK   10  A    between atoms: C17_21  and  C18_22
REMARK   11  A    between atoms: C17_21  and  C19_23
REMARK                            x       y       z     vdW  Elec       q    Type
REMARK                         _______ _______ _______ _____ _____    ______ ____
ROOT
ATOM      1  C3  UNL     1       3.809  65.875  69.209  0.00  0.00    +0.000 C 
ATOM      2  C4  UNL     1       2.795  64.864  69.792  0.00  0.00    +0.000 C 
ATOM      3  C5  UNL     1       1.404  65.344  69.356  0.00  0.00    +0.000 C 
ATOM      4  C6  UNL     1       1.646  66.674  68.624  0.00  0.00    +0.000 C 
ATOM      5  C14 UNL     1       3.063  66.525  68.024  0.00  0.00    +0.000 C 
ENDROOT
BRANCH   4   6
ATOM      6  C7  UNL     1       0.561  67.182  67.708  0.00  0.00    +0.000 C 
ATOM      7  C8  UNL     1      -0.692  66.590  67.634  0.00  0.00    +0.000 C 
ATOM      8  N1  UNL     1      -1.684  66.982  66.793  0.00  0.00    +0.000 NA
ATOM      9  C9  UNL     1      -1.466  68.050  65.999  0.00  0.00    +0.000 C 
ATOM     10  C10 UNL     1      -2.587  68.481  65.100  0.00  0.00    +0.000 C 
ATOM     11  C11 UNL     1      -0.274  68.753  66.027  0.00  0.00    +0.000 C 
ATOM     12  C12 UNL     1       0.736  68.300  66.873  0.00  0.00    +0.000 C 
BRANCH  12  13
ATOM     13  C13 UNL     1       2.007  69.049  66.847  0.00  0.00    +0.000 C 
ATOM     14  N2  UNL     1       2.340  70.039  67.627  0.00  0.00    +0.000 NA
BRANCH  14  15
ATOM     15  O1  UNL     1       1.309  70.338  68.534  0.00  0.00    +0.000 OA
ATOM     16  H   UNL     1       0.679  70.998  68.325  0.00  0.00    +0.000 HD
ENDBRANCH  14  15
ENDBRANCH  12  13
ENDBRANCH   4   6
BRANCH   1  18
ATOM     17  C1  UNL     1       5.394  63.917  69.560  0.00  0.00    +0.000 C 
ATOM     18  C2  UNL     1       5.179  65.266  68.882  0.00  0.00    +0.000 C 
ENDBRANCH   1  18
BRANCH   5  19
ATOM     19  C15 UNL     1       3.162  65.655  66.763  0.00  0.00    +0.000 C 
ATOM     20  O2  UNL     1       3.019  64.427  66.794  0.00  0.00    +0.000 OA
BRANCH  19  21
ATOM     21  C16 UNL     1       3.502  66.353  65.452  0.00  0.00    +0.000 C 
BRANCH  21  22
ATOM     22  C17 UNL     1       4.685  67.320  65.579  0.00  0.00    +0.000 C 
ATOM     23  C18 UNL     1       5.995  66.547  65.518  0.00  0.00    +0.000 C 
ATOM     24  C19 UNL     1       4.670  68.374  64.466  0.00  0.00    +0.000 C 
ENDBRANCH  21  22
ENDBRANCH  19  21
ENDBRANCH   5  19
TORSDOF 7
ENDMDL
MODEL 9
REMARK VINA RESULT:    -7.485      2.981      6.767
REMARK INTER + INTRA:         -11.041
REMARK INTER:                 -10.779
REMARK INTRA:                  -0.262
REMARK UNBOUND:                -0.712
REMARK  Name = laboratorio_evolutivo\Gen6_Mutante_3.pdb
REMARK  11 active torsions:
REMARK  status: ('A' for Active; 'I' for Inactive)
REMARK    1  A    between atoms: C1_1  and  C2_2
REMARK    2  A    between atoms: C2_2  and  C3_3
REMARK    3  A    between atoms: C6_6  and  C7_7
REMARK    4  A    between atoms: C9_10  and  C10_11
REMARK    5  A    between atoms: C12_13  and  C13_14
REMARK    6  A    between atoms: N2_15  and  O1_16
REMARK    7  A    between atoms: C14_17  and  C15_18
REMARK    8  A    between atoms: C15_18  and  C16_20
REMARK    9  A    between atoms: C16_20  and  C17_21
REMARK   10  A    between atoms: C17_21  and  C18_22
REMARK   11  A    between atoms: C17_21  and  C19_23
REMARK                            x       y       z     vdW  Elec       q    Type
REMARK                         _______ _______ _______ _____ _____    ______ ____
ROOT
ATOM      1  C3  UNL     1       4.767  63.459  69.032  0.00  0.00    +0.000 C 
ATOM      2  C4  UNL     1       5.416  64.808  69.418  0.00  0.00    +0.000 C 
ATOM      3  C5  UNL     1       4.942  65.832  68.379  0.00  0.00    +0.000 C 
ATOM      4  C6  UNL     1       4.118  65.024  67.362  0.00  0.00    +0.000 C 
ATOM      5  C14 UNL     1       3.535  63.855  68.188  0.00  0.00    +0.000 C 
ENDROOT
BRANCH   4   6
ATOM      6  C7  UNL     1       3.164  65.778  66.470  0.00  0.00    +0.000 C 
ATOM      7  C8  UNL     1       2.537  66.950  66.868  0.00  0.00    +0.000 C 
ATOM      8  N1  UNL     1       1.638  67.639  66.119  0.00  0.00    +0.000 NA
ATOM      9  C9  UNL     1       1.356  67.188  64.880  0.00  0.00    +0.000 C 
ATOM     10  C10 UNL     1       0.381  67.981  64.061  0.00  0.00    +0.000 C 
ATOM     11  C11 UNL     1       1.963  66.059  64.355  0.00  0.00    +0.000 C 
ATOM     12  C12 UNL     1       2.852  65.355  65.165  0.00  0.00    +0.000 C 
BRANCH  12  13
ATOM     13  C13 UNL     1       3.448  64.135  64.589  0.00  0.00    +0.000 C 
ATOM     14  N2  UNL     1       4.510  64.073  63.836  0.00  0.00    +0.000 NA
BRANCH  14  15
ATOM     15  O1  UNL     1       5.049  65.350  63.612  0.00  0.00    +0.000 OA
ATOM     16  H   UNL     1       5.146  65.949  64.326  0.00  0.00    +0.000 HD
ENDBRANCH  14  15
ENDBRANCH  12  13
ENDBRANCH   4   6
BRANCH   1  18
ATOM     17  C1  UNL     1       4.508  61.061  69.838  0.00  0.00    +0.000 C 
ATOM     18  C2  UNL     1       4.488  62.535  70.226  0.00  0.00    +0.000 C 
ENDBRANCH   1  18
BRANCH   5  19
ATOM     19  C15 UNL     1       2.339  64.207  69.085  0.00  0.00    +0.000 C 
ATOM     20  O2  UNL     1       2.169  65.342  69.544  0.00  0.00    +0.000 OA
BRANCH  19  21
ATOM     21  C16 UNL     1       1.378  63.082  69.447  0.00  0.00    +0.000 C 
BRANCH  21  22
ATOM     22  C17 UNL     1       0.771  63.239  70.846  0.00  0.00    +0.000 C 
ATOM     23  C18 UNL     1      -0.532  62.458  70.936  0.00  0.00    +0.000 C 
ATOM     24  C19 UNL     1       1.732  62.744  71.933  0.00  0.00    +0.000 C 
ENDBRANCH  21  22
ENDBRANCH  19  21
ENDBRANCH   5  19
TORSDOF 7
ENDMDL
