REMARK  Name = laboratorio_evolutivo\Gen6_Mutante_4.pdb
REMARK  11 active torsions:
REMARK  status: ('A' for Active; 'I' for Inactive)
REMARK    1  A    between atoms: C1_1  and  C2_2
REMARK    2  A    between atoms: C2_2  and  C3_3
REMARK    3  A    between atoms: C5_5  and  C6_6
REMARK    4  A    between atoms: N1_7  and  O1_8
REMARK    5  A    between atoms: C7_9  and  C8_10
REMARK    6  A    between atoms: C11_13  and  C12_14
REMARK    7  A    between atoms: C13_15  and  C14_16
REMARK    8  A    between atoms: C14_16  and  C15_18
REMARK    9  A    between atoms: C15_18  and  C16_19
REMARK   10  A    between atoms: C16_19  and  C17_20
REMARK   11  A    between atoms: C16_19  and  C18_21
REMARK                            x       y       z     vdW  Elec       q    Type
REMARK                         _______ _______ _______ _____ _____    ______ ____
ROOT
ATOM      1  C3  UNL     1       3.154   1.517  -1.142  0.00  0.00    +0.000 C 
ATOM      2  C4  UNL     1       2.782   0.321  -1.736  0.00  0.00    +0.000 C 
ATOM      3  C5  UNL     1       1.900  -0.525  -1.057  0.00  0.00    +0.000 C 
ATOM      4  C7  UNL     1       1.384  -0.163   0.194  0.00  0.00    +0.000 C 
ATOM      5  C19 UNL     1       1.837   1.054   0.702  0.00  0.00    +0.000 C 
ATOM      6  N2  UNL     1       2.692   1.890   0.071  0.00  0.00    +0.000 NA
ENDROOT
BRANCH   4   7
ATOM      7  C8  UNL     1       0.423  -1.023   0.989  0.00  0.00    +0.000 C 
ATOM      8  C9  UNL     1       0.980  -1.432   2.372  0.00  0.00    +0.000 C 
ATOM      9  C10 UNL     1      -0.046  -0.960   3.400  0.00  0.00    +0.000 C 
ATOM     10  C11 UNL     1      -1.371  -0.901   2.639  0.00  0.00    +0.000 C 
ATOM     11  C12 UNL     1      -2.026  -2.282   2.554  0.00  0.00    +0.000 C 
ATOM     12  C13 UNL     1      -0.925  -0.320   1.289  0.00  0.00    +0.000 C 
BRANCH  12  13
ATOM     13  C14 UNL     1      -1.965  -0.467   0.183  0.00  0.00    +0.000 C 
ATOM     14  O2  UNL     1      -1.821  -1.269  -0.739  0.00  0.00    +0.000 OA
BRANCH  13  15
ATOM     15  C15 UNL     1      -3.206   0.410   0.307  0.00  0.00    +0.000 C 
BRANCH  15  16
ATOM     16  C16 UNL     1      -3.990   0.550  -1.006  0.00  0.00    +0.000 C 
ATOM     17  C17 UNL     1      -5.358   1.180  -0.735  0.00  0.00    +0.000 C 
ATOM     18  C18 UNL     1      -3.224   1.396  -2.026  0.00  0.00    +0.000 C 
ENDBRANCH  15  16
ENDBRANCH  13  15
ENDBRANCH  12  13
ENDBRANCH   4   7
BRANCH   1  20
ATOM     19  C1  UNL     1       5.566   2.065  -1.523  0.00  0.00    +0.000 C 
ATOM     20  C2  UNL     1       4.124   2.444  -1.824  0.00  0.00    +0.000 C 
ENDBRANCH   1  20
BRANCH   3  21
ATOM     21  C6  UNL     1       1.493  -1.777  -1.729  0.00  0.00    +0.000 C 
ATOM     22  N1  UNL     1       2.263  -2.693  -2.242  0.00  0.00    +0.000 NA
BRANCH  22  23
ATOM     23  O1  UNL     1       3.620  -2.429  -2.035  0.00  0.00    +0.000 OA
ATOM     24  H   UNL     1       4.268  -3.022  -2.362  0.00  0.00    +0.000 HD
ENDBRANCH  22  23
ENDBRANCH   3  21
TORSDOF 7
