MODEL 1
REMARK VINA RESULT:    -6.007      0.000      0.000
REMARK INTER + INTRA:          -9.013
REMARK INTER:                  -7.938
REMARK INTRA:                  -1.075
REMARK UNBOUND:                -1.075
REMARK  Name = laboratorio_evolutivo\Gen6_Mutante_6.pdb
REMARK  11 active torsions:
REMARK  status: ('A' for Active; 'I' for Inactive)
REMARK    1  A    between atoms: C1_1  and  C2_2
REMARK    2  A    between atoms: C4_4  and  C5_5
REMARK    3  A    between atoms: N1_6  and  O1_7
REMARK    4  A    between atoms: C6_8  and  C7_9
REMARK    5  A    between atoms: C10_12  and  C11_13
REMARK    6  A    between atoms: C12_14  and  C13_15
REMARK    7  A    between atoms: C13_15  and  C14_17
REMARK    8  A    between atoms: C14_17  and  C15_18
REMARK    9  A    between atoms: C15_18  and  C16_19
REMARK   10  A    between atoms: C15_18  and  C17_20
REMARK   11  A    between atoms: C18_21  and  C19_22
REMARK                            x       y       z     vdW  Elec       q    Type
REMARK                         _______ _______ _______ _____ _____    ______ ____
ROOT
ATOM      1  C1  UNL     1      -0.752  -0.342  14.142  0.00  0.00    +0.000 C 
ATOM      2  C2  UNL     1      -0.361  -0.281  15.587  0.00  0.00    +0.000 C 
ATOM      3  C3  UNL     1      -1.279  -0.575  16.570  0.00  0.00    +0.000 C 
ATOM      4  C4  UNL     1      -0.877  -0.524  17.910  0.00  0.00    +0.000 C 
ATOM      5  C6  UNL     1       0.447  -0.202  18.271  0.00  0.00    +0.000 C 
ATOM      6  C18 UNL     1       1.286   0.138  17.187  0.00  0.00    +0.000 C 
ATOM      7  C19 UNL     1       2.686   0.661  17.364  0.00  0.00    +0.000 C 
ATOM      8  N2  UNL     1       0.898   0.080  15.886  0.00  0.00    +0.000 NA
ENDROOT
BRANCH   5   9
ATOM      9  C7  UNL     1       1.015  -0.220  19.683  0.00  0.00    +0.000 C 
ATOM     10  C8  UNL     1       0.153   0.068  20.920  0.00  0.00    +0.000 C 
ATOM     11  C9  UNL     1       1.000  -0.355  22.122  0.00  0.00    +0.000 C 
ATOM     12  C10 UNL     1       2.127  -1.237  21.564  0.00  0.00    +0.000 C 
ATOM     13  C11 UNL     1       2.419  -2.448  22.436  0.00  0.00    +0.000 C 
ATOM     14  C12 UNL     1       1.754  -1.523  20.096  0.00  0.00    +0.000 C 
BRANCH  14  15
ATOM     15  C13 UNL     1       0.930  -2.801  19.928  0.00  0.00    +0.000 C 
ATOM     16  O2  UNL     1       0.013  -3.099  20.691  0.00  0.00    +0.000 OA
BRANCH  15  17
ATOM     17  C14 UNL     1       1.334  -3.751  18.812  0.00  0.00    +0.000 C 
BRANCH  17  18
ATOM     18  C15 UNL     1       2.798  -3.598  18.379  0.00  0.00    +0.000 C 
ATOM     19  C16 UNL     1       3.570  -4.872  18.724  0.00  0.00    +0.000 C 
ATOM     20  C17 UNL     1       2.923  -3.303  16.878  0.00  0.00    +0.000 C 
ENDBRANCH  17  18
ENDBRANCH  15  17
ENDBRANCH  14  15
ENDBRANCH   5   9
BRANCH   4  21
ATOM     21  C5  UNL     1      -1.980  -0.656  18.878  0.00  0.00    +0.000 C 
ATOM     22  N1  UNL     1      -2.658  -1.719  19.178  0.00  0.00    +0.000 NA
BRANCH  22  23
ATOM     23  O1  UNL     1      -2.175  -2.854  18.511  0.00  0.00    +0.000 OA
ATOM     24  H   UNL     1      -2.390  -2.995  17.611  0.00  0.00    +0.000 HD
ENDBRANCH  22  23
ENDBRANCH   4  21
TORSDOF 6
ENDMDL
MODEL 2
REMARK VINA RESULT:    -5.897      2.735      5.695
REMARK INTER + INTRA:          -8.868
REMARK INTER:                  -8.507
REMARK INTRA:                  -0.361
REMARK UNBOUND:                -1.075
REMARK  Name = laboratorio_evolutivo\Gen6_Mutante_6.pdb
REMARK  11 active torsions:
REMARK  status: ('A' for Active; 'I' for Inactive)
REMARK    1  A    between atoms: C1_1  and  C2_2
REMARK    2  A    between atoms: C4_4  and  C5_5
REMARK    3  A    between atoms: N1_6  and  O1_7
REMARK    4  A    between atoms: C6_8  and  C7_9
REMARK    5  A    between atoms: C10_12  and  C11_13
REMARK    6  A    between atoms: C12_14  and  C13_15
REMARK    7  A    between atoms: C13_15  and  C14_17
REMARK    8  A    between atoms: C14_17  and  C15_18
REMARK    9  A    between atoms: C15_18  and  C16_19
REMARK   10  A    between atoms: C15_18  and  C17_20
REMARK   11  A    between atoms: C18_21  and  C19_22
REMARK                            x       y       z     vdW  Elec       q    Type
REMARK                         _______ _______ _______ _____ _____    ______ ____
ROOT
ATOM      1  C1  UNL     1       3.375   2.344  23.493  0.00  0.00    +0.000 C 
ATOM      2  C2  UNL     1       2.843   1.410  22.449  0.00  0.00    +0.000 C 
ATOM      3  C3  UNL     1       2.374   1.900  21.251  0.00  0.00    +0.000 C 
ATOM      4  C4  UNL     1       1.899   0.999  20.291  0.00  0.00    +0.000 C 
ATOM      5  C6  UNL     1       1.911  -0.392  20.515  0.00  0.00    +0.000 C 
ATOM      6  C18 UNL     1       2.357  -0.778  21.797  0.00  0.00    +0.000 C 
ATOM      7  C19 UNL     1       2.303  -2.197  22.294  0.00  0.00    +0.000 C 
ATOM      8  N2  UNL     1       2.827   0.096  22.727  0.00  0.00    +0.000 NA
ENDROOT
BRANCH   5   9
ATOM      9  C7  UNL     1       1.518  -1.461  19.504  0.00  0.00    +0.000 C 
ATOM     10  C8  UNL     1       1.948  -2.927  19.646  0.00  0.00    +0.000 C 
ATOM     11  C9  UNL     1       1.105  -3.706  18.635  0.00  0.00    +0.000 C 
ATOM     12  C10 UNL     1      -0.051  -2.778  18.235  0.00  0.00    +0.000 C 
ATOM     13  C11 UNL     1      -1.381  -3.506  18.116  0.00  0.00    +0.000 C 
ATOM     14  C12 UNL     1      -0.004  -1.592  19.219  0.00  0.00    +0.000 C 
BRANCH  14  15
ATOM     15  C13 UNL     1      -0.866  -1.816  20.464  0.00  0.00    +0.000 C 
ATOM     16  O2  UNL     1      -0.696  -2.770  21.220  0.00  0.00    +0.000 OA
BRANCH  15  17
ATOM     17  C14 UNL     1      -2.010  -0.845  20.704  0.00  0.00    +0.000 C 
BRANCH  17  18
ATOM     18  C15 UNL     1      -2.280   0.088  19.516  0.00  0.00    +0.000 C 
ATOM     19  C16 UNL     1      -3.587  -0.318  18.833  0.00  0.00    +0.000 C 
ATOM     20  C17 UNL     1      -2.351   1.559  19.947  0.00  0.00    +0.000 C 
ENDBRANCH  17  18
ENDBRANCH  15  17
ENDBRANCH  14  15
ENDBRANCH   5   9
BRANCH   4  21
ATOM     21  C5  UNL     1       1.237   1.637  19.138  0.00  0.00    +0.000 C 
ATOM     22  N1  UNL     1       1.790   2.228  18.126  0.00  0.00    +0.000 NA
BRANCH  22  23
ATOM     23  O1  UNL     1       3.189   2.145  18.170  0.00  0.00    +0.000 OA
ATOM     24  H   UNL     1       3.672   1.959  17.390  0.00  0.00    +0.000 HD
ENDBRANCH  22  23
ENDBRANCH   4  21
TORSDOF 6
ENDMDL
MODEL 3
REMARK VINA RESULT:    -5.862      3.179      5.783
REMARK INTER + INTRA:          -8.822
REMARK INTER:                  -7.589
REMARK INTRA:                  -1.233
REMARK UNBOUND:                -1.075
REMARK  Name = laboratorio_evolutivo\Gen6_Mutante_6.pdb
REMARK  11 active torsions:
REMARK  status: ('A' for Active; 'I' for Inactive)
REMARK    1  A    between atoms: C1_1  and  C2_2
REMARK    2  A    between atoms: C4_4  and  C5_5
REMARK    3  A    between atoms: N1_6  and  O1_7
REMARK    4  A    between atoms: C6_8  and  C7_9
REMARK    5  A    between atoms: C10_12  and  C11_13
REMARK    6  A    between atoms: C12_14  and  C13_15
REMARK    7  A    between atoms: C13_15  and  C14_17
REMARK    8  A    between atoms: C14_17  and  C15_18
REMARK    9  A    between atoms: C15_18  and  C16_19
REMARK   10  A    between atoms: C15_18  and  C17_20
REMARK   11  A    between atoms: C18_21  and  C19_22
REMARK                            x       y       z     vdW  Elec       q    Type
REMARK                         _______ _______ _______ _____ _____    ______ ____
ROOT
ATOM      1  C1  UNL     1       3.081   4.947  21.609  0.00  0.00    +0.000 C 
ATOM      2  C2  UNL     1       2.686   3.678  20.917  0.00  0.00    +0.000 C 
ATOM      3  C3  UNL     1       2.752   2.473  21.580  0.00  0.00    +0.000 C 
ATOM      4  C4  UNL     1       2.361   1.308  20.909  0.00  0.00    +0.000 C 
ATOM      5  C6  UNL     1       1.882   1.346  19.584  0.00  0.00    +0.000 C 
ATOM      6  C18 UNL     1       1.912   2.623  18.984  0.00  0.00    +0.000 C 
ATOM      7  C19 UNL     1       1.592   2.856  17.532  0.00  0.00    +0.000 C 
ATOM      8  N2  UNL     1       2.283   3.755  19.638  0.00  0.00    +0.000 NA
ENDROOT
BRANCH   5   9
ATOM      9  C7  UNL     1       1.335   0.160  18.802  0.00  0.00    +0.000 C 
ATOM     10  C8  UNL     1       1.659  -1.293  19.175  0.00  0.00    +0.000 C 
ATOM     11  C9  UNL     1       0.686  -2.155  18.368  0.00  0.00    +0.000 C 
ATOM     12  C10 UNL     1      -0.420  -1.209  17.878  0.00  0.00    +0.000 C 
ATOM     13  C11 UNL     1      -1.808  -1.825  17.967  0.00  0.00    +0.000 C 
ATOM     14  C12 UNL     1      -0.209   0.118  18.634  0.00  0.00    +0.000 C 
BRANCH  14  15
ATOM     15  C13 UNL     1      -0.993   0.188  19.946  0.00  0.00    +0.000 C 
ATOM     16  O2  UNL     1      -0.860  -0.647  20.839  0.00  0.00    +0.000 OA
BRANCH  15  17
ATOM     17  C14 UNL     1      -2.018   1.302  20.089  0.00  0.00    +0.000 C 
BRANCH  17  18
ATOM     18  C15 UNL     1      -1.702   2.535  19.233  0.00  0.00    +0.000 C 
ATOM     19  C16 UNL     1      -2.862   2.803  18.272  0.00  0.00    +0.000 C 
ATOM     20  C17 UNL     1      -1.443   3.779  20.095  0.00  0.00    +0.000 C 
ENDBRANCH  17  18
ENDBRANCH  15  17
ENDBRANCH  14  15
ENDBRANCH   5   9
BRANCH   4  21
ATOM     21  C5  UNL     1       2.662   0.062  21.636  0.00  0.00    +0.000 C 
ATOM     22  N1  UNL     1       2.010  -0.465  22.625  0.00  0.00    +0.000 NA
BRANCH  22  23
ATOM     23  O1  UNL     1       0.850   0.260  22.933  0.00  0.00    +0.000 OA
ATOM     24  H   UNL     1       0.095  -0.184  23.265  0.00  0.00    +0.000 HD
ENDBRANCH  22  23
ENDBRANCH   4  21
TORSDOF 6
ENDMDL
MODEL 4
REMARK VINA RESULT:    -5.520      2.287      5.592
REMARK INTER + INTRA:          -8.369
REMARK INTER:                  -7.182
REMARK INTRA:                  -1.187
REMARK UNBOUND:                -1.075
REMARK  Name = laboratorio_evolutivo\Gen6_Mutante_6.pdb
REMARK  11 active torsions:
REMARK  status: ('A' for Active; 'I' for Inactive)
REMARK    1  A    between atoms: C1_1  and  C2_2
REMARK    2  A    between atoms: C4_4  and  C5_5
REMARK    3  A    between atoms: N1_6  and  O1_7
REMARK    4  A    between atoms: C6_8  and  C7_9
REMARK    5  A    between atoms: C10_12  and  C11_13
REMARK    6  A    between atoms: C12_14  and  C13_15
REMARK    7  A    between atoms: C13_15  and  C14_17
REMARK    8  A    between atoms: C14_17  and  C15_18
REMARK    9  A    between atoms: C15_18  and  C16_19
REMARK   10  A    between atoms: C15_18  and  C17_20
REMARK   11  A    between atoms: C18_21  and  C19_22
REMARK                            x       y       z     vdW  Elec       q    Type
REMARK                         _______ _______ _______ _____ _____    ______ ____
ROOT
ATOM      1  C1  UNL     1       3.125   1.532  23.114  0.00  0.00    +0.000 C 
ATOM      2  C2  UNL     1       2.599   0.847  21.889  0.00  0.00    +0.000 C 
ATOM      3  C3  UNL     1       2.055  -0.415  21.977  0.00  0.00    +0.000 C 
ATOM      4  C4  UNL     1       1.558  -1.020  20.817  0.00  0.00    +0.000 C 
ATOM      5  C6  UNL     1       1.582  -0.360  19.572  0.00  0.00    +0.000 C 
ATOM      6  C18 UNL     1       2.214   0.903  19.588  0.00  0.00    +0.000 C 
ATOM      7  C19 UNL     1       2.483   1.703  18.342  0.00  0.00    +0.000 C 
ATOM      8  N2  UNL     1       2.688   1.494  20.716  0.00  0.00    +0.000 NA
ENDROOT
BRANCH   5   9
ATOM      9  C7  UNL     1       0.977  -0.880  18.276  0.00  0.00    +0.000 C 
ATOM     10  C8  UNL     1       0.673  -2.368  18.048  0.00  0.00    +0.000 C 
ATOM     11  C9  UNL     1      -0.197  -2.426  16.791  0.00  0.00    +0.000 C 
ATOM     12  C10 UNL     1      -0.712  -0.997  16.560  0.00  0.00    +0.000 C 
ATOM     13  C11 UNL     1      -2.169  -0.955  16.128  0.00  0.00    +0.000 C 
ATOM     14  C12 UNL     1      -0.350  -0.204  17.832  0.00  0.00    +0.000 C 
BRANCH  14  15
ATOM     15  C13 UNL     1      -1.459  -0.229  18.886  0.00  0.00    +0.000 C 
ATOM     16  O2  UNL     1      -2.033  -1.266  19.214  0.00  0.00    +0.000 OA
BRANCH  15  17
ATOM     17  C14 UNL     1      -1.893   1.103  19.474  0.00  0.00    +0.000 C 
BRANCH  17  18
ATOM     18  C15 UNL     1      -1.228   2.313  18.804  0.00  0.00    +0.000 C 
ATOM     19  C16 UNL     1      -2.239   3.016  17.897  0.00  0.00    +0.000 C 
ATOM     20  C17 UNL     1      -0.674   3.305  19.835  0.00  0.00    +0.000 C 
ENDBRANCH  17  18
ENDBRANCH  15  17
ENDBRANCH  14  15
ENDBRANCH   5   9
BRANCH   4  21
ATOM     21  C5  UNL     1       1.189  -2.438  20.984  0.00  0.00    +0.000 C 
ATOM     22  N1  UNL     1       0.088  -2.925  21.463  0.00  0.00    +0.000 NA
BRANCH  22  23
ATOM     23  O1  UNL     1      -0.842  -1.921  21.768  0.00  0.00    +0.000 OA
ATOM     24  H   UNL     1      -1.760  -2.096  21.697  0.00  0.00    +0.000 HD
ENDBRANCH  22  23
ENDBRANCH   4  21
TORSDOF 6
ENDMDL
MODEL 5
REMARK VINA RESULT:    -5.506     22.543     25.181
REMARK INTER + INTRA:          -8.351
REMARK INTER:                  -7.213
REMARK INTRA:                  -1.138
REMARK UNBOUND:                -1.075
REMARK  Name = laboratorio_evolutivo\Gen6_Mutante_6.pdb
REMARK  11 active torsions:
REMARK  status: ('A' for Active; 'I' for Inactive)
REMARK    1  A    between atoms: C1_1  and  C2_2
REMARK    2  A    between atoms: C4_4  and  C5_5
REMARK    3  A    between atoms: N1_6  and  O1_7
REMARK    4  A    between atoms: C6_8  and  C7_9
REMARK    5  A    between atoms: C10_12  and  C11_13
REMARK    6  A    between atoms: C12_14  and  C13_15
REMARK    7  A    between atoms: C13_15  and  C14_17
REMARK    8  A    between atoms: C14_17  and  C15_18
REMARK    9  A    between atoms: C15_18  and  C16_19
REMARK   10  A    between atoms: C15_18  and  C17_20
REMARK   11  A    between atoms: C18_21  and  C19_22
REMARK                            x       y       z     vdW  Elec       q    Type
REMARK                         _______ _______ _______ _____ _____    ______ ____
ROOT
ATOM      1  C1  UNL     1      16.283  -1.844   2.659  0.00  0.00    +0.000 C 
ATOM      2  C2  UNL     1      16.144  -3.217   2.074  0.00  0.00    +0.000 C 
ATOM      3  C3  UNL     1      16.264  -3.411   0.716  0.00  0.00    +0.000 C 
ATOM      4  C4  UNL     1      16.144  -4.709   0.205  0.00  0.00    +0.000 C 
ATOM      5  C6  UNL     1      15.927  -5.817   1.048  0.00  0.00    +0.000 C 
ATOM      6  C18 UNL     1      15.762  -5.495   2.412  0.00  0.00    +0.000 C 
ATOM      7  C19 UNL     1      15.369  -6.507   3.454  0.00  0.00    +0.000 C 
ATOM      8  N2  UNL     1      15.887  -4.236   2.911  0.00  0.00    +0.000 NA
ENDROOT
BRANCH   5   9
ATOM      9  C7  UNL     1      15.887  -7.275   0.610  0.00  0.00    +0.000 C 
ATOM     10  C8  UNL     1      15.354  -7.707  -0.763  0.00  0.00    +0.000 C 
ATOM     11  C9  UNL     1      15.774  -9.169  -0.929  0.00  0.00    +0.000 C 
ATOM     12  C10 UNL     1      16.862  -9.424   0.125  0.00  0.00    +0.000 C 
ATOM     13  C11 UNL     1      18.010 -10.272  -0.403  0.00  0.00    +0.000 C 
ATOM     14  C12 UNL     1      17.236  -8.041   0.693  0.00  0.00    +0.000 C 
BRANCH  14  15
ATOM     15  C13 UNL     1      18.391  -7.378  -0.062  0.00  0.00    +0.000 C 
ATOM     16  O2  UNL     1      18.368  -7.205  -1.279  0.00  0.00    +0.000 OA
BRANCH  15  17
ATOM     17  C14 UNL     1      19.624  -6.999   0.741  0.00  0.00    +0.000 C 
BRANCH  17  18
ATOM     18  C15 UNL     1      19.298  -6.401   2.116  0.00  0.00    +0.000 C 
ATOM     19  C16 UNL     1      20.195  -7.039   3.178  0.00  0.00    +0.000 C 
ATOM     20  C17 UNL     1      19.474  -4.877   2.132  0.00  0.00    +0.000 C 
ENDBRANCH  17  18
ENDBRANCH  15  17
ENDBRANCH  14  15
ENDBRANCH   5   9
BRANCH   4  21
ATOM     21  C5  UNL     1      16.086  -4.776  -1.267  0.00  0.00    +0.000 C 
ATOM     22  N1  UNL     1      17.031  -4.520  -2.116  0.00  0.00    +0.000 NA
BRANCH  22  23
ATOM     23  O1  UNL     1      18.244  -4.223  -1.478  0.00  0.00    +0.000 OA
ATOM     24  H   UNL     1      18.633  -3.378  -1.584  0.00  0.00    +0.000 HD
ENDBRANCH  22  23
ENDBRANCH   4  21
TORSDOF 6
ENDMDL
MODEL 6
REMARK VINA RESULT:    -5.450     21.550     24.033
REMARK INTER + INTRA:          -8.278
REMARK INTER:                  -7.136
REMARK INTRA:                  -1.141
REMARK UNBOUND:                -1.075
REMARK  Name = laboratorio_evolutivo\Gen6_Mutante_6.pdb
REMARK  11 active torsions:
REMARK  status: ('A' for Active; 'I' for Inactive)
REMARK    1  A    between atoms: C1_1  and  C2_2
REMARK    2  A    between atoms: C4_4  and  C5_5
REMARK    3  A    between atoms: N1_6  and  O1_7
REMARK    4  A    between atoms: C6_8  and  C7_9
REMARK    5  A    between atoms: C10_12  and  C11_13
REMARK    6  A    between atoms: C12_14  and  C13_15
REMARK    7  A    between atoms: C13_15  and  C14_17
REMARK    8  A    between atoms: C14_17  and  C15_18
REMARK    9  A    between atoms: C15_18  and  C16_19
REMARK   10  A    between atoms: C15_18  and  C17_20
REMARK   11  A    between atoms: C18_21  and  C19_22
REMARK                            x       y       z     vdW  Elec       q    Type
REMARK                         _______ _______ _______ _____ _____    ______ ____
ROOT
ATOM      1  C1  UNL     1      12.501  -4.644  -0.089  0.00  0.00    +0.000 C 
ATOM      2  C2  UNL     1      13.286  -5.691   0.641  0.00  0.00    +0.000 C 
ATOM      3  C3  UNL     1      13.598  -6.883   0.026  0.00  0.00    +0.000 C 
ATOM      4  C4  UNL     1      14.346  -7.833   0.730  0.00  0.00    +0.000 C 
ATOM      5  C6  UNL     1      14.805  -7.588   2.040  0.00  0.00    +0.000 C 
ATOM      6  C18 UNL     1      14.378  -6.361   2.592  0.00  0.00    +0.000 C 
ATOM      7  C19 UNL     1      14.626  -5.974   4.025  0.00  0.00    +0.000 C 
ATOM      8  N2  UNL     1      13.659  -5.434   1.906  0.00  0.00    +0.000 NA
ENDROOT
BRANCH   5   9
ATOM      9  C7  UNL     1      15.710  -8.503   2.853  0.00  0.00    +0.000 C 
ATOM     10  C8  UNL     1      15.710 -10.028   2.676  0.00  0.00    +0.000 C 
ATOM     11  C9  UNL     1      16.948 -10.531   3.421  0.00  0.00    +0.000 C 
ATOM     12  C10 UNL     1      17.838  -9.301   3.653  0.00  0.00    +0.000 C 
ATOM     13  C11 UNL     1      19.315  -9.588   3.433  0.00  0.00    +0.000 C 
ATOM     14  C12 UNL     1      17.226  -8.168   2.805  0.00  0.00    +0.000 C 
BRANCH  14  15
ATOM     15  C13 UNL     1      17.816  -8.092   1.396  0.00  0.00    +0.000 C 
ATOM     16  O2  UNL     1      17.963  -9.087   0.689  0.00  0.00    +0.000 OA
BRANCH  15  17
ATOM     17  C14 UNL     1      18.295  -6.733   0.912  0.00  0.00    +0.000 C 
BRANCH  17  18
ATOM     18  C15 UNL     1      18.433  -5.698   2.036  0.00  0.00    +0.000 C 
ATOM     19  C16 UNL     1      19.869  -5.173   2.075  0.00  0.00    +0.000 C 
ATOM     20  C17 UNL     1      17.455  -4.528   1.860  0.00  0.00    +0.000 C 
ENDBRANCH  17  18
ENDBRANCH  15  17
ENDBRANCH  14  15
ENDBRANCH   5   9
BRANCH   4  21
ATOM     21  C5  UNL     1      14.448  -9.142   0.059  0.00  0.00    +0.000 C 
ATOM     22  N1  UNL     1      15.163  -9.456  -0.975  0.00  0.00    +0.000 NA
BRANCH  22  23
ATOM     23  O1  UNL     1      15.964  -8.388  -1.404  0.00  0.00    +0.000 OA
ATOM     24  H   UNL     1      15.641  -7.510  -1.351  0.00  0.00    +0.000 HD
ENDBRANCH  22  23
ENDBRANCH   4  21
TORSDOF 6
ENDMDL
MODEL 7
REMARK VINA RESULT:    -5.395      2.887      4.081
REMARK INTER + INTRA:          -8.205
REMARK INTER:                  -7.555
REMARK INTRA:                  -0.649
REMARK UNBOUND:                -1.075
REMARK  Name = laboratorio_evolutivo\Gen6_Mutante_6.pdb
REMARK  11 active torsions:
REMARK  status: ('A' for Active; 'I' for Inactive)
REMARK    1  A    between atoms: C1_1  and  C2_2
REMARK    2  A    between atoms: C4_4  and  C5_5
REMARK    3  A    between atoms: N1_6  and  O1_7
REMARK    4  A    between atoms: C6_8  and  C7_9
REMARK    5  A    between atoms: C10_12  and  C11_13
REMARK    6  A    between atoms: C12_14  and  C13_15
REMARK    7  A    between atoms: C13_15  and  C14_17
REMARK    8  A    between atoms: C14_17  and  C15_18
REMARK    9  A    between atoms: C15_18  and  C16_19
REMARK   10  A    between atoms: C15_18  and  C17_20
REMARK   11  A    between atoms: C18_21  and  C19_22
REMARK                            x       y       z     vdW  Elec       q    Type
REMARK                         _______ _______ _______ _____ _____    ______ ____
ROOT
ATOM      1  C1  UNL     1       2.237   5.417  19.662  0.00  0.00    +0.000 C 
ATOM      2  C2  UNL     1       1.848   4.012  20.010  0.00  0.00    +0.000 C 
ATOM      3  C3  UNL     1       0.584   3.548  19.724  0.00  0.00    +0.000 C 
ATOM      4  C4  UNL     1       0.258   2.226  20.047  0.00  0.00    +0.000 C 
ATOM      5  C6  UNL     1       1.200   1.357  20.636  0.00  0.00    +0.000 C 
ATOM      6  C18 UNL     1       2.443   1.954  20.938  0.00  0.00    +0.000 C 
ATOM      7  C19 UNL     1       3.529   1.249  21.705  0.00  0.00    +0.000 C 
ATOM      8  N2  UNL     1       2.762   3.236  20.615  0.00  0.00    +0.000 NA
ENDROOT
BRANCH   5   9
ATOM      9  C7  UNL     1       0.985  -0.121  20.930  0.00  0.00    +0.000 C 
ATOM     10  C8  UNL     1      -0.396  -0.702  21.265  0.00  0.00    +0.000 C 
ATOM     11  C9  UNL     1      -0.239  -2.221  21.177  0.00  0.00    +0.000 C 
ATOM     12  C10 UNL     1       1.070  -2.473  20.413  0.00  0.00    +0.000 C 
ATOM     13  C11 UNL     1       0.962  -3.617  19.416  0.00  0.00    +0.000 C 
ATOM     14  C12 UNL     1       1.500  -1.106  19.844  0.00  0.00    +0.000 C 
BRANCH  14  15
ATOM     15  C13 UNL     1       0.952  -0.846  18.439  0.00  0.00    +0.000 C 
ATOM     16  O2  UNL     1      -0.242  -0.952  18.168  0.00  0.00    +0.000 OA
BRANCH  15  17
ATOM     17  C14 UNL     1       1.958  -0.517  17.348  0.00  0.00    +0.000 C 
BRANCH  17  18
ATOM     18  C15 UNL     1       2.255  -1.697  16.414  0.00  0.00    +0.000 C 
ATOM     19  C16 UNL     1       1.490  -1.517  15.102  0.00  0.00    +0.000 C 
ATOM     20  C17 UNL     1       3.756  -1.837  16.128  0.00  0.00    +0.000 C 
ENDBRANCH  17  18
ENDBRANCH  15  17
ENDBRANCH  14  15
ENDBRANCH   5   9
BRANCH   4  21
ATOM     21  C5  UNL     1      -1.170   1.897  19.887  0.00  0.00    +0.000 C 
ATOM     22  N1  UNL     1      -1.838   1.755  18.786  0.00  0.00    +0.000 NA
BRANCH  22  23
ATOM     23  O1  UNL     1      -1.017   1.870  17.655  0.00  0.00    +0.000 OA
ATOM     24  H   UNL     1      -0.129   1.572  17.689  0.00  0.00    +0.000 HD
ENDBRANCH  22  23
ENDBRANCH   4  21
TORSDOF 6
ENDMDL
MODEL 8
REMARK VINA RESULT:    -5.384      3.022      5.668
REMARK INTER + INTRA:          -8.189
REMARK INTER:                  -6.977
REMARK INTRA:                  -1.212
REMARK UNBOUND:                -1.075
REMARK  Name = laboratorio_evolutivo\Gen6_Mutante_6.pdb
REMARK  11 active torsions:
REMARK  status: ('A' for Active; 'I' for Inactive)
REMARK    1  A    between atoms: C1_1  and  C2_2
REMARK    2  A    between atoms: C4_4  and  C5_5
REMARK    3  A    between atoms: N1_6  and  O1_7
REMARK    4  A    between atoms: C6_8  and  C7_9
REMARK    5  A    between atoms: C10_12  and  C11_13
REMARK    6  A    between atoms: C12_14  and  C13_15
REMARK    7  A    between atoms: C13_15  and  C14_17
REMARK    8  A    between atoms: C14_17  and  C15_18
REMARK    9  A    between atoms: C15_18  and  C16_19
REMARK   10  A    between atoms: C15_18  and  C17_20
REMARK   11  A    between atoms: C18_21  and  C19_22
REMARK                            x       y       z     vdW  Elec       q    Type
REMARK                         _______ _______ _______ _____ _____    ______ ____
ROOT
ATOM      1  C1  UNL     1       2.478  -0.643  22.492  0.00  0.00    +0.000 C 
ATOM      2  C2  UNL     1       1.570   0.064  21.533  0.00  0.00    +0.000 C 
ATOM      3  C3  UNL     1       1.994   1.201  20.882  0.00  0.00    +0.000 C 
ATOM      4  C4  UNL     1       1.127   1.829  19.981  0.00  0.00    +0.000 C 
ATOM      5  C6  UNL     1      -0.157   1.312  19.711  0.00  0.00    +0.000 C 
ATOM      6  C18 UNL     1      -0.508   0.179  20.477  0.00  0.00    +0.000 C 
ATOM      7  C19 UNL     1      -1.883  -0.433  20.456  0.00  0.00    +0.000 C 
ATOM      8  N2  UNL     1       0.338  -0.436  21.345  0.00  0.00    +0.000 NA
ENDROOT
BRANCH   5   9
ATOM      9  C7  UNL     1      -1.135   1.852  18.676  0.00  0.00    +0.000 C 
ATOM     10  C8  UNL     1      -1.067   3.294  18.155  0.00  0.00    +0.000 C 
ATOM     11  C9  UNL     1      -1.989   3.337  16.934  0.00  0.00    +0.000 C 
ATOM     12  C10 UNL     1      -2.239   1.875  16.534  0.00  0.00    +0.000 C 
ATOM     13  C11 UNL     1      -2.217   1.660  15.029  0.00  0.00    +0.000 C 
ATOM     14  C12 UNL     1      -1.246   1.033  17.361  0.00  0.00    +0.000 C 
BRANCH  14  15
ATOM     15  C13 UNL     1       0.085   0.803  16.641  0.00  0.00    +0.000 C 
ATOM     16  O2  UNL     1       0.724   1.721  16.129  0.00  0.00    +0.000 OA
BRANCH  15  17
ATOM     17  C14 UNL     1       0.569  -0.631  16.510  0.00  0.00    +0.000 C 
BRANCH  17  18
ATOM     18  C15 UNL     1       1.805  -0.940  17.365  0.00  0.00    +0.000 C 
ATOM     19  C16 UNL     1       1.498  -2.104  18.308  0.00  0.00    +0.000 C 
ATOM     20  C17 UNL     1       3.028  -1.278  16.502  0.00  0.00    +0.000 C 
ENDBRANCH  17  18
ENDBRANCH  15  17
ENDBRANCH  14  15
ENDBRANCH   5   9
BRANCH   4  21
ATOM     21  C5  UNL     1       1.600   3.138  19.498  0.00  0.00    +0.000 C 
ATOM     22  N1  UNL     1       2.501   3.381  18.599  0.00  0.00    +0.000 NA
BRANCH  22  23
ATOM     23  O1  UNL     1       2.984   2.203  18.010  0.00  0.00    +0.000 OA
ATOM     24  H   UNL     1       2.633   1.374  18.266  0.00  0.00    +0.000 HD
ENDBRANCH  22  23
ENDBRANCH   4  21
TORSDOF 6
ENDMDL
MODEL 9
REMARK VINA RESULT:    -5.200     30.350     32.255
REMARK INTER + INTRA:          -7.947
REMARK INTER:                  -6.999
REMARK INTRA:                  -0.948
REMARK UNBOUND:                -1.075
REMARK  Name = laboratorio_evolutivo\Gen6_Mutante_6.pdb
REMARK  11 active torsions:
REMARK  status: ('A' for Active; 'I' for Inactive)
REMARK    1  A    between atoms: C1_1  and  C2_2
REMARK    2  A    between atoms: C4_4  and  C5_5
REMARK    3  A    between atoms: N1_6  and  O1_7
REMARK    4  A    between atoms: C6_8  and  C7_9
REMARK    5  A    between atoms: C10_12  and  C11_13
REMARK    6  A    between atoms: C12_14  and  C13_15
REMARK    7  A    between atoms: C13_15  and  C14_17
REMARK    8  A    between atoms: C14_17  and  C15_18
REMARK    9  A    between atoms: C15_18  and  C16_19
REMARK   10  A    between atoms: C15_18  and  C17_20
REMARK   11  A    between atoms: C18_21  and  C19_22
REMARK                            x       y       z     vdW  Elec       q    Type
REMARK                         _______ _______ _______ _____ _____    ______ ____
ROOT
ATOM      1  C1  UNL     1      25.060 -12.361  -3.254  0.00  0.00    +0.000 C 
ATOM      2  C2  UNL     1      23.719 -13.014  -3.396  0.00  0.00    +0.000 C 
ATOM      3  C3  UNL     1      23.035 -13.450  -2.284  0.00  0.00    +0.000 C 
ATOM      4  C4  UNL     1      21.778 -14.042  -2.451  0.00  0.00    +0.000 C 
ATOM      5  C6  UNL     1      21.191 -14.180  -3.725  0.00  0.00    +0.000 C 
ATOM      6  C18 UNL     1      22.004 -13.753  -4.797  0.00  0.00    +0.000 C 
ATOM      7  C19 UNL     1      21.633 -13.955  -6.241  0.00  0.00    +0.000 C 
ATOM      8  N2  UNL     1      23.221 -13.170  -4.634  0.00  0.00    +0.000 NA
ENDROOT
BRANCH   5   9
ATOM      9  C7  UNL     1      19.792 -14.709  -4.008  0.00  0.00    +0.000 C 
ATOM     10  C8  UNL     1      19.061 -15.658  -3.047  0.00  0.00    +0.000 C 
ATOM     11  C9  UNL     1      17.608 -15.692  -3.526  0.00  0.00    +0.000 C 
ATOM     12  C10 UNL     1      17.435 -14.486  -4.461  0.00  0.00    +0.000 C 
ATOM     13  C11 UNL     1      16.109 -13.769  -4.265  0.00  0.00    +0.000 C 
ATOM     14  C12 UNL     1      18.708 -13.633  -4.293  0.00  0.00    +0.000 C 
BRANCH  14  15
ATOM     15  C13 UNL     1      18.571 -12.566  -3.204  0.00  0.00    +0.000 C 
ATOM     16  O2  UNL     1      18.101 -12.813  -2.096  0.00  0.00    +0.000 OA
BRANCH  15  17
ATOM     17  C14 UNL     1      18.973 -11.145  -3.565  0.00  0.00    +0.000 C 
BRANCH  17  18
ATOM     18  C15 UNL     1      18.626 -10.760  -5.009  0.00  0.00    +0.000 C 
ATOM     19  C16 UNL     1      17.934  -9.397  -5.024  0.00  0.00    +0.000 C 
ATOM     20  C17 UNL     1      19.872 -10.722  -5.905  0.00  0.00    +0.000 C 
ENDBRANCH  17  18
ENDBRANCH  15  17
ENDBRANCH  14  15
ENDBRANCH   5   9
BRANCH   4  21
ATOM     21  C5  UNL     1      21.228 -14.651  -1.226  0.00  0.00    +0.000 C 
ATOM     22  N1  UNL     1      20.678 -14.056  -0.215  0.00  0.00    +0.000 NA
BRANCH  22  23
ATOM     23  O1  UNL     1      20.562 -12.674  -0.419  0.00  0.00    +0.000 OA
ATOM     24  H   UNL     1      19.933 -12.179   0.068  0.00  0.00    +0.000 HD
ENDBRANCH  22  23
ENDBRANCH   4  21
TORSDOF 6
ENDMDL
