REMARK  Name = laboratorio_evolutivo\Gen6_Mutante_6.pdb
REMARK  11 active torsions:
REMARK  status: ('A' for Active; 'I' for Inactive)
REMARK    1  A    between atoms: C1_1  and  C2_2
REMARK    2  A    between atoms: C4_4  and  C5_5
REMARK    3  A    between atoms: N1_6  and  O1_7
REMARK    4  A    between atoms: C6_8  and  C7_9
REMARK    5  A    between atoms: C10_12  and  C11_13
REMARK    6  A    between atoms: C12_14  and  C13_15
REMARK    7  A    between atoms: C13_15  and  C14_17
REMARK    8  A    between atoms: C14_17  and  C15_18
REMARK    9  A    between atoms: C15_18  and  C16_19
REMARK   10  A    between atoms: C15_18  and  C17_20
REMARK   11  A    between atoms: C18_21  and  C19_22
REMARK                            x       y       z     vdW  Elec       q    Type
REMARK                         _______ _______ _______ _____ _____    ______ ____
ROOT
ATOM      1  C1  UNL     1      -3.969   2.916  -0.424  0.00  0.00    +0.000 C 
ATOM      2  C2  UNL     1      -3.113   1.719  -0.142  0.00  0.00    +0.000 C 
ATOM      3  C3  UNL     1      -2.977   0.723  -1.083  0.00  0.00    +0.000 C 
ATOM      4  C4  UNL     1      -2.157  -0.374  -0.794  0.00  0.00    +0.000 C 
ATOM      5  C6  UNL     1      -1.454  -0.469   0.424  0.00  0.00    +0.000 C 
ATOM      6  C18 UNL     1      -1.713   0.577   1.336  0.00  0.00    +0.000 C 
ATOM      7  C19 UNL     1      -1.188   0.587   2.746  0.00  0.00    +0.000 C 
ATOM      8  N2  UNL     1      -2.502   1.647   1.052  0.00  0.00    +0.000 NA
ENDROOT
BRANCH   5   9
ATOM      9  C7  UNL     1      -0.459  -1.560   0.795  0.00  0.00    +0.000 C 
ATOM     10  C8  UNL     1      -0.405  -2.908   0.063  0.00  0.00    +0.000 C 
ATOM     11  C9  UNL     1       0.900  -3.570   0.510  0.00  0.00    +0.000 C 
ATOM     12  C10 UNL     1       1.750  -2.458   1.143  0.00  0.00    +0.000 C 
ATOM     13  C11 UNL     1       3.220  -2.548   0.764  0.00  0.00    +0.000 C 
ATOM     14  C12 UNL     1       1.035  -1.134   0.807  0.00  0.00    +0.000 C 
BRANCH  14  15
ATOM     15  C13 UNL     1       1.527  -0.505  -0.498  0.00  0.00    +0.000 C 
ATOM     16  O2  UNL     1       1.261  -0.981  -1.600  0.00  0.00    +0.000 OA
BRANCH  15  17
ATOM     17  C14 UNL     1       2.435   0.709  -0.389  0.00  0.00    +0.000 C 
BRANCH  17  18
ATOM     18  C15 UNL     1       1.685   2.005  -0.055  0.00  0.00    +0.000 C 
ATOM     19  C16 UNL     1       2.691   3.109   0.274  0.00  0.00    +0.000 C 
ATOM     20  C17 UNL     1       0.777   2.454  -1.208  0.00  0.00    +0.000 C 
ENDBRANCH  17  18
ENDBRANCH  15  17
ENDBRANCH  14  15
ENDBRANCH   5   9
BRANCH   4  21
ATOM     21  C5  UNL     1      -2.243  -1.469  -1.777  0.00  0.00    +0.000 C 
ATOM     22  N1  UNL     1      -1.964  -1.431  -3.042  0.00  0.00    +0.000 NA
BRANCH  22  23
ATOM     23  O1  UNL     1      -1.456  -0.183  -3.430  0.00  0.00    +0.000 OA
ATOM     24  H   UNL     1      -1.217  -0.032  -4.323  0.00  0.00    +0.000 HD
ENDBRANCH  22  23
ENDBRANCH   4  21
TORSDOF 6
