MODEL 1
REMARK VINA RESULT:    -6.115      0.000      0.000
REMARK INTER + INTRA:         -10.253
REMARK INTER:                  -8.438
REMARK INTRA:                  -1.815
REMARK UNBOUND:                -1.815
REMARK  Name = laboratorio_evolutivo\Gen6_Mutante_1.pdb
REMARK  11 active torsions:
REMARK  status: ('A' for Active; 'I' for Inactive)
REMARK    1  A    between atoms: C1_1  and  C2_2
REMARK    2  A    between atoms: C2_2  and  C3_3
REMARK    3  A    between atoms: C3_3  and  C4_4
REMARK    4  A    between atoms: C3_3  and  C5_5
REMARK    5  A    between atoms: C5_5  and  C6_6
REMARK    6  A    between atoms: C6_6  and  C7_8
REMARK    7  A    between atoms: C8_9  and  C9_10
REMARK    8  A    between atoms: C12_13  and  C13_14
REMARK    9  A    between atoms: C15_17  and  C16_18
REMARK   10  A    between atoms: C18_20  and  C19_21
REMARK   11  A    between atoms: N2_22  and  O2_23
REMARK                            x       y       z     vdW  Elec       q    Type
REMARK                         _______ _______ _______ _____ _____    ______ ____
ROOT
ATOM      1  C7  UNL     1       1.357   0.091  19.252  0.00  0.00    +0.000 C 
ATOM      2  C8  UNL     1       1.110   1.505  18.707  0.00  0.00    +0.000 C 
ATOM      3  C9  UNL     1       1.175   2.588  19.778  0.00  0.00    +0.000 C 
ATOM      4  C10 UNL     1       2.216   1.667  17.667  0.00  0.00    +0.000 C 
ATOM      5  C11 UNL     1       2.290   0.313  16.973  0.00  0.00    +0.000 C 
ATOM      6  C12 UNL     1       1.857  -0.724  18.028  0.00  0.00    +0.000 C 
ENDROOT
BRANCH   6   7
ATOM      7  C13 UNL     1       0.989  -1.836  17.480  0.00  0.00    +0.000 C 
ATOM      8  C14 UNL     1       0.002  -1.498  16.552  0.00  0.00    +0.000 C 
ATOM      9  N1  UNL     1      -0.807  -2.375  15.915  0.00  0.00    +0.000 NA
ATOM     10  C15 UNL     1      -0.657  -3.686  16.194  0.00  0.00    +0.000 C 
ATOM     11  C16 UNL     1      -1.541  -4.657  15.471  0.00  0.00    +0.000 C 
ATOM     12  C17 UNL     1       0.273  -4.139  17.115  0.00  0.00    +0.000 C 
ATOM     13  C18 UNL     1       1.092  -3.205  17.760  0.00  0.00    +0.000 C 
BRANCH  13  14
ATOM     14  C19 UNL     1       2.008  -3.756  18.771  0.00  0.00    +0.000 C 
ATOM     15  N2  UNL     1       3.260  -4.054  18.605  0.00  0.00    +0.000 NA
BRANCH  15  16
ATOM     16  O2  UNL     1       3.702  -3.732  17.315  0.00  0.00    +0.000 OA
ATOM     17  H   UNL     1       4.482  -4.124  16.975  0.00  0.00    +0.000 HD
ENDBRANCH  15  16
ENDBRANCH  13  14
ENDBRANCH   6   7
BRANCH   1  18
ATOM     18  C6  UNL     1       0.194  -0.502  20.048  0.00  0.00    +0.000 C 
ATOM     19  O1  UNL     1      -0.984  -0.292  19.750  0.00  0.00    +0.000 OA
BRANCH  18  20
ATOM     20  C5  UNL     1       0.548  -1.341  21.268  0.00  0.00    +0.000 C 
BRANCH  20  21
ATOM     21  C3  UNL     1       2.021  -1.184  21.680  0.00  0.00    +0.000 C 
ATOM     22  C4  UNL     1       2.502  -2.423  22.448  0.00  0.00    +0.000 C 
BRANCH  21  24
ATOM     23  C1  UNL     1       3.503   0.846  22.202  0.00  0.00    +0.000 C 
ATOM     24  C2  UNL     1       2.242   0.068  22.552  0.00  0.00    +0.000 C 
ENDBRANCH  21  24
ENDBRANCH  20  21
ENDBRANCH  18  20
ENDBRANCH   1  18
TORSDOF 7
ENDMDL
MODEL 2
REMARK VINA RESULT:    -6.098      2.368      4.871
REMARK INTER + INTRA:         -10.230
REMARK INTER:                  -8.611
REMARK INTRA:                  -1.619
REMARK UNBOUND:                -1.815
REMARK  Name = laboratorio_evolutivo\Gen6_Mutante_1.pdb
REMARK  11 active torsions:
REMARK  status: ('A' for Active; 'I' for Inactive)
REMARK    1  A    between atoms: C1_1  and  C2_2
REMARK    2  A    between atoms: C2_2  and  C3_3
REMARK    3  A    between atoms: C3_3  and  C4_4
REMARK    4  A    between atoms: C3_3  and  C5_5
REMARK    5  A    between atoms: C5_5  and  C6_6
REMARK    6  A    between atoms: C6_6  and  C7_8
REMARK    7  A    between atoms: C8_9  and  C9_10
REMARK    8  A    between atoms: C12_13  and  C13_14
REMARK    9  A    between atoms: C15_17  and  C16_18
REMARK   10  A    between atoms: C18_20  and  C19_21
REMARK   11  A    between atoms: N2_22  and  O2_23
REMARK                            x       y       z     vdW  Elec       q    Type
REMARK                         _______ _______ _______ _____ _____    ______ ____
ROOT
ATOM      1  C7  UNL     1       1.971   1.798  20.830  0.00  0.00    +0.000 C 
ATOM      2  C8  UNL     1       3.389   1.612  21.390  0.00  0.00    +0.000 C 
ATOM      3  C9  UNL     1       4.078   2.923  21.749  0.00  0.00    +0.000 C 
ATOM      4  C10 UNL     1       3.156   0.738  22.620  0.00  0.00    +0.000 C 
ATOM      5  C11 UNL     1       2.101  -0.269  22.181  0.00  0.00    +0.000 C 
ATOM      6  C12 UNL     1       1.251   0.452  21.115  0.00  0.00    +0.000 C 
ENDROOT
BRANCH   6   7
ATOM      7  C13 UNL     1       0.848  -0.427  19.950  0.00  0.00    +0.000 C 
ATOM      8  C14 UNL     1       1.806  -1.294  19.423  0.00  0.00    +0.000 C 
ATOM      9  N1  UNL     1       1.590  -2.193  18.435  0.00  0.00    +0.000 NA
ATOM     10  C15 UNL     1       0.350  -2.262  17.909  0.00  0.00    +0.000 C 
ATOM     11  C16 UNL     1       0.109  -3.273  16.829  0.00  0.00    +0.000 C 
ATOM     12  C17 UNL     1      -0.675  -1.435  18.334  0.00  0.00    +0.000 C 
ATOM     13  C18 UNL     1      -0.418  -0.513  19.355  0.00  0.00    +0.000 C 
BRANCH  13  14
ATOM     14  C19 UNL     1      -1.538   0.373  19.707  0.00  0.00    +0.000 C 
ATOM     15  N2  UNL     1      -2.451   0.154  20.605  0.00  0.00    +0.000 NA
BRANCH  15  16
ATOM     16  O2  UNL     1      -2.226  -1.049  21.287  0.00  0.00    +0.000 OA
ATOM     17  H   UNL     1      -2.140  -1.049  22.221  0.00  0.00    +0.000 HD
ENDBRANCH  15  16
ENDBRANCH  13  14
ENDBRANCH   6   7
BRANCH   1  18
ATOM     18  C6  UNL     1       1.912   2.324  19.395  0.00  0.00    +0.000 C 
ATOM     19  O1  UNL     1       2.728   1.986  18.536  0.00  0.00    +0.000 OA
BRANCH  18  20
ATOM     20  C5  UNL     1       0.815   3.329  19.072  0.00  0.00    +0.000 C 
BRANCH  20  21
ATOM     21  C3  UNL     1       0.863   4.563  19.986  0.00  0.00    +0.000 C 
ATOM     22  C4  UNL     1      -0.460   5.340  19.915  0.00  0.00    +0.000 C 
BRANCH  21  24
ATOM     23  C1  UNL     1       2.643   6.219  20.810  0.00  0.00    +0.000 C 
ATOM     24  C2  UNL     1       2.023   5.508  19.615  0.00  0.00    +0.000 C 
ENDBRANCH  21  24
ENDBRANCH  20  21
ENDBRANCH  18  20
ENDBRANCH   1  18
TORSDOF 7
ENDMDL
MODEL 3
REMARK VINA RESULT:    -6.001      2.462      4.416
REMARK INTER + INTRA:         -10.097
REMARK INTER:                  -8.801
REMARK INTRA:                  -1.295
REMARK UNBOUND:                -1.815
REMARK  Name = laboratorio_evolutivo\Gen6_Mutante_1.pdb
REMARK  11 active torsions:
REMARK  status: ('A' for Active; 'I' for Inactive)
REMARK    1  A    between atoms: C1_1  and  C2_2
REMARK    2  A    between atoms: C2_2  and  C3_3
REMARK    3  A    between atoms: C3_3  and  C4_4
REMARK    4  A    between atoms: C3_3  and  C5_5
REMARK    5  A    between atoms: C5_5  and  C6_6
REMARK    6  A    between atoms: C6_6  and  C7_8
REMARK    7  A    between atoms: C8_9  and  C9_10
REMARK    8  A    between atoms: C12_13  and  C13_14
REMARK    9  A    between atoms: C15_17  and  C16_18
REMARK   10  A    between atoms: C18_20  and  C19_21
REMARK   11  A    between atoms: N2_22  and  O2_23
REMARK                            x       y       z     vdW  Elec       q    Type
REMARK                         _______ _______ _______ _____ _____    ______ ____
ROOT
ATOM      1  C7  UNL     1       1.039  -3.247  19.114  0.00  0.00    +0.000 C 
ATOM      2  C8  UNL     1       1.931  -4.067  18.171  0.00  0.00    +0.000 C 
ATOM      3  C9  UNL     1       3.303  -4.384  18.755  0.00  0.00    +0.000 C 
ATOM      4  C10 UNL     1       1.108  -5.331  17.937  0.00  0.00    +0.000 C 
ATOM      5  C11 UNL     1      -0.325  -4.834  17.798  0.00  0.00    +0.000 C 
ATOM      6  C12 UNL     1      -0.413  -3.557  18.657  0.00  0.00    +0.000 C 
ENDROOT
BRANCH   6   7
ATOM      7  C13 UNL     1      -1.240  -2.452  18.037  0.00  0.00    +0.000 C 
ATOM      8  C14 UNL     1      -1.124  -2.241  16.661  0.00  0.00    +0.000 C 
ATOM      9  N1  UNL     1      -1.842  -1.348  15.942  0.00  0.00    +0.000 NA
ATOM     10  C15 UNL     1      -2.746  -0.593  16.601  0.00  0.00    +0.000 C 
ATOM     11  C16 UNL     1      -3.554   0.381  15.798  0.00  0.00    +0.000 C 
ATOM     12  C17 UNL     1      -2.931  -0.696  17.968  0.00  0.00    +0.000 C 
ATOM     13  C18 UNL     1      -2.170  -1.627  18.684  0.00  0.00    +0.000 C 
BRANCH  13  14
ATOM     14  C19 UNL     1      -2.378  -1.632  20.140  0.00  0.00    +0.000 C 
ATOM     15  N2  UNL     1      -3.336  -2.222  20.787  0.00  0.00    +0.000 NA
BRANCH  15  16
ATOM     16  O2  UNL     1      -4.173  -2.944  19.925  0.00  0.00    +0.000 OA
ATOM     17  H   UNL     1      -4.911  -3.409  20.269  0.00  0.00    +0.000 HD
ENDBRANCH  15  16
ENDBRANCH  13  14
ENDBRANCH   6   7
BRANCH   1  18
ATOM     18  C6  UNL     1       1.424  -1.772  19.240  0.00  0.00    +0.000 C 
ATOM     19  O1  UNL     1       1.957  -1.149  18.320  0.00  0.00    +0.000 OA
BRANCH  18  20
ATOM     20  C5  UNL     1       1.158  -1.101  20.581  0.00  0.00    +0.000 C 
BRANCH  20  21
ATOM     21  C3  UNL     1       2.383  -1.138  21.508  0.00  0.00    +0.000 C 
ATOM     22  C4  UNL     1       2.349  -2.388  22.399  0.00  0.00    +0.000 C 
BRANCH  21  24
ATOM     23  C1  UNL     1       3.518   1.121  21.952  0.00  0.00    +0.000 C 
ATOM     24  C2  UNL     1       2.466   0.116  22.400  0.00  0.00    +0.000 C 
ENDBRANCH  21  24
ENDBRANCH  20  21
ENDBRANCH  18  20
ENDBRANCH   1  18
TORSDOF 7
ENDMDL
MODEL 4
REMARK VINA RESULT:    -5.922      2.162      4.857
REMARK INTER + INTRA:          -9.987
REMARK INTER:                  -8.131
REMARK INTRA:                  -1.856
REMARK UNBOUND:                -1.815
REMARK  Name = laboratorio_evolutivo\Gen6_Mutante_1.pdb
REMARK  11 active torsions:
REMARK  status: ('A' for Active; 'I' for Inactive)
REMARK    1  A    between atoms: C1_1  and  C2_2
REMARK    2  A    between atoms: C2_2  and  C3_3
REMARK    3  A    between atoms: C3_3  and  C4_4
REMARK    4  A    between atoms: C3_3  and  C5_5
REMARK    5  A    between atoms: C5_5  and  C6_6
REMARK    6  A    between atoms: C6_6  and  C7_8
REMARK    7  A    between atoms: C8_9  and  C9_10
REMARK    8  A    between atoms: C12_13  and  C13_14
REMARK    9  A    between atoms: C15_17  and  C16_18
REMARK   10  A    between atoms: C18_20  and  C19_21
REMARK   11  A    between atoms: N2_22  and  O2_23
REMARK                            x       y       z     vdW  Elec       q    Type
REMARK                         _______ _______ _______ _____ _____    ______ ____
ROOT
ATOM      1  C7  UNL     1       1.656   1.152  20.557  0.00  0.00    +0.000 C 
ATOM      2  C8  UNL     1       3.015   1.227  21.270  0.00  0.00    +0.000 C 
ATOM      3  C9  UNL     1       3.635   2.619  21.251  0.00  0.00    +0.000 C 
ATOM      4  C10 UNL     1       2.679   0.774  22.689  0.00  0.00    +0.000 C 
ATOM      5  C11 UNL     1       1.695  -0.374  22.502  0.00  0.00    +0.000 C 
ATOM      6  C12 UNL     1       0.941  -0.072  21.192  0.00  0.00    +0.000 C 
ENDROOT
BRANCH   6   7
ATOM      7  C13 UNL     1       0.676  -1.293  20.337  0.00  0.00    +0.000 C 
ATOM      8  C14 UNL     1       1.733  -2.177  20.113  0.00  0.00    +0.000 C 
ATOM      9  N1  UNL     1       1.648  -3.345  19.437  0.00  0.00    +0.000 NA
ATOM     10  C15 UNL     1       0.446  -3.692  18.932  0.00  0.00    +0.000 C 
ATOM     11  C16 UNL     1       0.350  -4.997  18.201  0.00  0.00    +0.000 C 
ATOM     12  C17 UNL     1      -0.669  -2.883  19.069  0.00  0.00    +0.000 C 
ATOM     13  C18 UNL     1      -0.546  -1.679  19.771  0.00  0.00    +0.000 C 
BRANCH  13  14
ATOM     14  C19 UNL     1      -1.758  -0.845  19.819  0.00  0.00    +0.000 C 
ATOM     15  N2  UNL     1      -2.692  -0.881  20.720  0.00  0.00    +0.000 NA
BRANCH  15  16
ATOM     16  O2  UNL     1      -2.395  -1.802  21.735  0.00  0.00    +0.000 OA
ATOM     17  H   UNL     1      -2.316  -2.713  21.533  0.00  0.00    +0.000 HD
ENDBRANCH  15  16
ENDBRANCH  13  14
ENDBRANCH   6   7
BRANCH   1  18
ATOM     18  C6  UNL     1       1.730   1.195  19.030  0.00  0.00    +0.000 C 
ATOM     19  O1  UNL     1       2.739   0.854  18.409  0.00  0.00    +0.000 OA
BRANCH  18  20
ATOM     20  C5  UNL     1       0.507   1.723  18.294  0.00  0.00    +0.000 C 
BRANCH  20  21
ATOM     21  C3  UNL     1       0.562   1.437  16.785  0.00  0.00    +0.000 C 
ATOM     22  C4  UNL     1      -0.025   2.612  15.990  0.00  0.00    +0.000 C 
BRANCH  21  24
ATOM     23  C1  UNL     1       0.702  -1.062  16.213  0.00  0.00    +0.000 C 
ATOM     24  C2  UNL     1      -0.199   0.148  16.417  0.00  0.00    +0.000 C 
ENDBRANCH  21  24
ENDBRANCH  20  21
ENDBRANCH  18  20
ENDBRANCH   1  18
TORSDOF 7
ENDMDL
MODEL 5
REMARK VINA RESULT:    -5.775     23.003     24.880
REMARK INTER + INTRA:          -9.784
REMARK INTER:                  -7.915
REMARK INTRA:                  -1.868
REMARK UNBOUND:                -1.815
REMARK  Name = laboratorio_evolutivo\Gen6_Mutante_1.pdb
REMARK  11 active torsions:
REMARK  status: ('A' for Active; 'I' for Inactive)
REMARK    1  A    between atoms: C1_1  and  C2_2
REMARK    2  A    between atoms: C2_2  and  C3_3
REMARK    3  A    between atoms: C3_3  and  C4_4
REMARK    4  A    between atoms: C3_3  and  C5_5
REMARK    5  A    between atoms: C5_5  and  C6_6
REMARK    6  A    between atoms: C6_6  and  C7_8
REMARK    7  A    between atoms: C8_9  and  C9_10
REMARK    8  A    between atoms: C12_13  and  C13_14
REMARK    9  A    between atoms: C15_17  and  C16_18
REMARK   10  A    between atoms: C18_20  and  C19_21
REMARK   11  A    between atoms: N2_22  and  O2_23
REMARK                            x       y       z     vdW  Elec       q    Type
REMARK                         _______ _______ _______ _____ _____    ______ ____
ROOT
ATOM      1  C7  UNL     1      18.720  -8.395   2.218  0.00  0.00    +0.000 C 
ATOM      2  C8  UNL     1      19.657  -8.084   3.393  0.00  0.00    +0.000 C 
ATOM      3  C9  UNL     1      19.995  -9.304   4.241  0.00  0.00    +0.000 C 
ATOM      4  C10 UNL     1      20.893  -7.513   2.701  0.00  0.00    +0.000 C 
ATOM      5  C11 UNL     1      20.337  -6.634   1.588  0.00  0.00    +0.000 C 
ATOM      6  C12 UNL     1      18.992  -7.269   1.183  0.00  0.00    +0.000 C 
ENDROOT
BRANCH   6   7
ATOM      7  C13 UNL     1      17.900  -6.264   0.886  0.00  0.00    +0.000 C 
ATOM      8  C14 UNL     1      17.626  -5.292   1.849  0.00  0.00    +0.000 C 
ATOM      9  N1  UNL     1      16.737  -4.282   1.712  0.00  0.00    +0.000 NA
ATOM     10  C15 UNL     1      16.051  -4.201   0.553  0.00  0.00    +0.000 C 
ATOM     11  C16 UNL     1      15.081  -3.069   0.397  0.00  0.00    +0.000 C 
ATOM     12  C17 UNL     1      16.220  -5.123  -0.465  0.00  0.00    +0.000 C 
ATOM     13  C18 UNL     1      17.145  -6.159  -0.290  0.00  0.00    +0.000 C 
BRANCH  13  14
ATOM     14  C19 UNL     1      17.221  -7.135  -1.389  0.00  0.00    +0.000 C 
ATOM     15  N2  UNL     1      18.060  -7.127  -2.379  0.00  0.00    +0.000 NA
BRANCH  15  16
ATOM     16  O2  UNL     1      18.978  -6.073  -2.270  0.00  0.00    +0.000 OA
ATOM     17  H   UNL     1      18.679  -5.186  -2.296  0.00  0.00    +0.000 HD
ENDBRANCH  15  16
ENDBRANCH  13  14
ENDBRANCH   6   7
BRANCH   1  18
ATOM     18  C6  UNL     1      17.261  -8.638   2.608  0.00  0.00    +0.000 C 
ATOM     19  O1  UNL     1      16.785  -8.228   3.668  0.00  0.00    +0.000 OA
BRANCH  18  20
ATOM     20  C5  UNL     1      16.414  -9.455   1.641  0.00  0.00    +0.000 C 
BRANCH  20  21
ATOM     21  C3  UNL     1      14.908  -9.289   1.898  0.00  0.00    +0.000 C 
ATOM     22  C4  UNL     1      14.152 -10.573   1.526  0.00  0.00    +0.000 C 
BRANCH  21  24
ATOM     23  C1  UNL     1      13.945  -6.911   1.970  0.00  0.00    +0.000 C 
ATOM     24  C2  UNL     1      14.317  -8.107   1.105  0.00  0.00    +0.000 C 
ENDBRANCH  21  24
ENDBRANCH  20  21
ENDBRANCH  18  20
ENDBRANCH   1  18
TORSDOF 7
ENDMDL
MODEL 6
REMARK VINA RESULT:    -5.627     23.064     24.976
REMARK INTER + INTRA:          -9.580
REMARK INTER:                  -8.123
REMARK INTRA:                  -1.457
REMARK UNBOUND:                -1.815
REMARK  Name = laboratorio_evolutivo\Gen6_Mutante_1.pdb
REMARK  11 active torsions:
REMARK  status: ('A' for Active; 'I' for Inactive)
REMARK    1  A    between atoms: C1_1  and  C2_2
REMARK    2  A    between atoms: C2_2  and  C3_3
REMARK    3  A    between atoms: C3_3  and  C4_4
REMARK    4  A    between atoms: C3_3  and  C5_5
REMARK    5  A    between atoms: C5_5  and  C6_6
REMARK    6  A    between atoms: C6_6  and  C7_8
REMARK    7  A    between atoms: C8_9  and  C9_10
REMARK    8  A    between atoms: C12_13  and  C13_14
REMARK    9  A    between atoms: C15_17  and  C16_18
REMARK   10  A    between atoms: C18_20  and  C19_21
REMARK   11  A    between atoms: N2_22  and  O2_23
REMARK                            x       y       z     vdW  Elec       q    Type
REMARK                         _______ _______ _______ _____ _____    ______ ____
ROOT
ATOM      1  C7  UNL     1      19.086  -7.186   1.372  0.00  0.00    +0.000 C 
ATOM      2  C8  UNL     1      19.603  -7.348   2.810  0.00  0.00    +0.000 C 
ATOM      3  C9  UNL     1      20.248  -8.703   3.074  0.00  0.00    +0.000 C 
ATOM      4  C10 UNL     1      20.607  -6.206   2.941  0.00  0.00    +0.000 C 
ATOM      5  C11 UNL     1      19.947  -5.032   2.229  0.00  0.00    +0.000 C 
ATOM      6  C12 UNL     1      19.060  -5.651   1.131  0.00  0.00    +0.000 C 
ENDROOT
BRANCH   6   7
ATOM      7  C13 UNL     1      17.727  -4.958   0.951  0.00  0.00    +0.000 C 
ATOM      8  C14 UNL     1      17.036  -4.561   2.097  0.00  0.00    +0.000 C 
ATOM      9  N1  UNL     1      15.873  -3.870   2.111  0.00  0.00    +0.000 NA
ATOM     10  C15 UNL     1      15.328  -3.534   0.924  0.00  0.00    +0.000 C 
ATOM     11  C16 UNL     1      14.050  -2.750   0.944  0.00  0.00    +0.000 C 
ATOM     12  C17 UNL     1      15.910  -3.894  -0.279  0.00  0.00    +0.000 C 
ATOM     13  C18 UNL     1      17.110  -4.612  -0.259  0.00  0.00    +0.000 C 
BRANCH  13  14
ATOM     14  C19 UNL     1      17.632  -5.014  -1.575  0.00  0.00    +0.000 C 
ATOM     15  N2  UNL     1      18.587  -4.440  -2.241  0.00  0.00    +0.000 NA
BRANCH  15  16
ATOM     16  O2  UNL     1      19.148  -3.373  -1.525  0.00  0.00    +0.000 OA
ATOM     17  H   UNL     1      18.984  -3.288  -0.606  0.00  0.00    +0.000 HD
ENDBRANCH  15  16
ENDBRANCH  13  14
ENDBRANCH   6   7
BRANCH   1  18
ATOM     18  C6  UNL     1      17.803  -7.956   1.061  0.00  0.00    +0.000 C 
ATOM     19  O1  UNL     1      17.503  -8.302  -0.083  0.00  0.00    +0.000 OA
BRANCH  18  20
ATOM     20  C5  UNL     1      16.872  -8.249   2.230  0.00  0.00    +0.000 C 
BRANCH  20  21
ATOM     21  C3  UNL     1      16.339  -9.691   2.207  0.00  0.00    +0.000 C 
ATOM     22  C4  UNL     1      14.804  -9.700   2.236  0.00  0.00    +0.000 C 
BRANCH  21  24
ATOM     23  C1  UNL     1      17.990 -11.480   3.022  0.00  0.00    +0.000 C 
ATOM     24  C2  UNL     1      16.870 -10.518   3.395  0.00  0.00    +0.000 C 
ENDBRANCH  21  24
ENDBRANCH  20  21
ENDBRANCH  18  20
ENDBRANCH   1  18
TORSDOF 7
ENDMDL
MODEL 7
REMARK VINA RESULT:    -5.576      2.199      4.462
REMARK INTER + INTRA:          -9.509
REMARK INTER:                  -8.406
REMARK INTRA:                  -1.103
REMARK UNBOUND:                -1.815
REMARK  Name = laboratorio_evolutivo\Gen6_Mutante_1.pdb
REMARK  11 active torsions:
REMARK  status: ('A' for Active; 'I' for Inactive)
REMARK    1  A    between atoms: C1_1  and  C2_2
REMARK    2  A    between atoms: C2_2  and  C3_3
REMARK    3  A    between atoms: C3_3  and  C4_4
REMARK    4  A    between atoms: C3_3  and  C5_5
REMARK    5  A    between atoms: C5_5  and  C6_6
REMARK    6  A    between atoms: C6_6  and  C7_8
REMARK    7  A    between atoms: C8_9  and  C9_10
REMARK    8  A    between atoms: C12_13  and  C13_14
REMARK    9  A    between atoms: C15_17  and  C16_18
REMARK   10  A    between atoms: C18_20  and  C19_21
REMARK   11  A    between atoms: N2_22  and  O2_23
REMARK                            x       y       z     vdW  Elec       q    Type
REMARK                         _______ _______ _______ _____ _____    ______ ____
ROOT
ATOM      1  C7  UNL     1       0.760  -0.158  21.370  0.00  0.00    +0.000 C 
ATOM      2  C8  UNL     1       2.245  -0.419  21.660  0.00  0.00    +0.000 C 
ATOM      3  C9  UNL     1       2.910   0.689  22.468  0.00  0.00    +0.000 C 
ATOM      4  C10 UNL     1       2.216  -1.740  22.425  0.00  0.00    +0.000 C 
ATOM      5  C11 UNL     1       1.163  -2.575  21.708  0.00  0.00    +0.000 C 
ATOM      6  C12 UNL     1       0.149  -1.566  21.131  0.00  0.00    +0.000 C 
ENDROOT
BRANCH   6   7
ATOM      7  C13 UNL     1      -0.358  -1.923  19.750  0.00  0.00    +0.000 C 
ATOM      8  C14 UNL     1       0.531  -2.538  18.866  0.00  0.00    +0.000 C 
ATOM      9  N1  UNL     1       0.221  -2.984  17.627  0.00  0.00    +0.000 NA
ATOM     10  C15 UNL     1      -1.049  -2.823  17.201  0.00  0.00    +0.000 C 
ATOM     11  C16 UNL     1      -1.395  -3.337  15.836  0.00  0.00    +0.000 C 
ATOM     12  C17 UNL     1      -2.012  -2.205  17.981  0.00  0.00    +0.000 C 
ATOM     13  C18 UNL     1      -1.658  -1.751  19.256  0.00  0.00    +0.000 C 
BRANCH  13  14
ATOM     14  C19 UNL     1      -2.717  -1.048  19.997  0.00  0.00    +0.000 C 
ATOM     15  N2  UNL     1      -3.828  -1.557  20.435  0.00  0.00    +0.000 NA
BRANCH  15  16
ATOM     16  O2  UNL     1      -3.906  -2.932  20.172  0.00  0.00    +0.000 OA
ATOM     17  H   UNL     1      -3.599  -3.271  19.354  0.00  0.00    +0.000 HD
ENDBRANCH  15  16
ENDBRANCH  13  14
ENDBRANCH   6   7
BRANCH   1  18
ATOM     18  C6  UNL     1       0.491   0.902  20.302  0.00  0.00    +0.000 C 
ATOM     19  O1  UNL     1      -0.516   1.613  20.317  0.00  0.00    +0.000 OA
BRANCH  18  20
ATOM     20  C5  UNL     1       1.510   1.023  19.177  0.00  0.00    +0.000 C 
BRANCH  20  21
ATOM     21  C3  UNL     1       1.134   2.114  18.161  0.00  0.00    +0.000 C 
ATOM     22  C4  UNL     1       1.120   1.544  16.736  0.00  0.00    +0.000 C 
BRANCH  21  24
ATOM     23  C1  UNL     1       1.750   4.343  19.276  0.00  0.00    +0.000 C 
ATOM     24  C2  UNL     1       2.107   3.309  18.217  0.00  0.00    +0.000 C 
ENDBRANCH  21  24
ENDBRANCH  20  21
ENDBRANCH  18  20
ENDBRANCH   1  18
TORSDOF 7
ENDMDL
MODEL 8
REMARK VINA RESULT:    -5.518     23.712     25.718
REMARK INTER + INTRA:          -9.429
REMARK INTER:                  -8.124
REMARK INTRA:                  -1.306
REMARK UNBOUND:                -1.815
REMARK  Name = laboratorio_evolutivo\Gen6_Mutante_1.pdb
REMARK  11 active torsions:
REMARK  status: ('A' for Active; 'I' for Inactive)
REMARK    1  A    between atoms: C1_1  and  C2_2
REMARK    2  A    between atoms: C2_2  and  C3_3
REMARK    3  A    between atoms: C3_3  and  C4_4
REMARK    4  A    between atoms: C3_3  and  C5_5
REMARK    5  A    between atoms: C5_5  and  C6_6
REMARK    6  A    between atoms: C6_6  and  C7_8
REMARK    7  A    between atoms: C8_9  and  C9_10
REMARK    8  A    between atoms: C12_13  and  C13_14
REMARK    9  A    between atoms: C15_17  and  C16_18
REMARK   10  A    between atoms: C18_20  and  C19_21
REMARK   11  A    between atoms: N2_22  and  O2_23
REMARK                            x       y       z     vdW  Elec       q    Type
REMARK                         _______ _______ _______ _____ _____    ______ ____
ROOT
ATOM      1  C7  UNL     1      16.533  -6.221   0.022  0.00  0.00    +0.000 C 
ATOM      2  C8  UNL     1      16.623  -4.727  -0.325  0.00  0.00    +0.000 C 
ATOM      3  C9  UNL     1      15.825  -4.342  -1.565  0.00  0.00    +0.000 C 
ATOM      4  C10 UNL     1      16.079  -4.053   0.933  0.00  0.00    +0.000 C 
ATOM      5  C11 UNL     1      16.662  -4.862   2.084  0.00  0.00    +0.000 C 
ATOM      6  C12 UNL     1      16.840  -6.294   1.543  0.00  0.00    +0.000 C 
ENDROOT
BRANCH   6   7
ATOM      7  C13 UNL     1      18.112  -6.974   2.004  0.00  0.00    +0.000 C 
ATOM      8  C14 UNL     1      19.258  -6.189   2.148  0.00  0.00    +0.000 C 
ATOM      9  N1  UNL     1      20.450  -6.623   2.617  0.00  0.00    +0.000 NA
ATOM     10  C15 UNL     1      20.551  -7.920   2.974  0.00  0.00    +0.000 C 
ATOM     11  C16 UNL     1      21.868  -8.392   3.512  0.00  0.00    +0.000 C 
ATOM     12  C17 UNL     1      19.489  -8.799   2.853  0.00  0.00    +0.000 C 
ATOM     13  C18 UNL     1      18.270  -8.320   2.361  0.00  0.00    +0.000 C 
BRANCH  13  14
ATOM     14  C19 UNL     1      17.210  -9.328   2.200  0.00  0.00    +0.000 C 
ATOM     15  N2  UNL     1      16.484  -9.850   3.141  0.00  0.00    +0.000 NA
BRANCH  15  16
ATOM     16  O2  UNL     1      16.780  -9.292   4.392  0.00  0.00    +0.000 OA
ATOM     17  H   UNL     1      16.691  -8.368   4.526  0.00  0.00    +0.000 HD
ENDBRANCH  15  16
ENDBRANCH  13  14
ENDBRANCH   6   7
BRANCH   1  18
ATOM     18  C6  UNL     1      17.342  -7.141  -0.892  0.00  0.00    +0.000 C 
ATOM     19  O1  UNL     1      18.470  -6.846  -1.294  0.00  0.00    +0.000 OA
BRANCH  18  20
ATOM     20  C5  UNL     1      16.677  -8.438  -1.330  0.00  0.00    +0.000 C 
BRANCH  20  21
ATOM     21  C3  UNL     1      17.648  -9.375  -2.068  0.00  0.00    +0.000 C 
ATOM     22  C4  UNL     1      17.055  -9.817  -3.413  0.00  0.00    +0.000 C 
BRANCH  21  24
ATOM     23  C1  UNL     1      16.790 -11.524  -0.958  0.00  0.00    +0.000 C 
ATOM     24  C2  UNL     1      17.987 -10.624  -1.231  0.00  0.00    +0.000 C 
ENDBRANCH  21  24
ENDBRANCH  20  21
ENDBRANCH  18  20
ENDBRANCH   1  18
TORSDOF 7
ENDMDL
MODEL 9
REMARK VINA RESULT:    -5.501      2.193      4.176
REMARK INTER + INTRA:          -9.406
REMARK INTER:                  -8.231
REMARK INTRA:                  -1.175
REMARK UNBOUND:                -1.815
REMARK  Name = laboratorio_evolutivo\Gen6_Mutante_1.pdb
REMARK  11 active torsions:
REMARK  status: ('A' for Active; 'I' for Inactive)
REMARK    1  A    between atoms: C1_1  and  C2_2
REMARK    2  A    between atoms: C2_2  and  C3_3
REMARK    3  A    between atoms: C3_3  and  C4_4
REMARK    4  A    between atoms: C3_3  and  C5_5
REMARK    5  A    between atoms: C5_5  and  C6_6
REMARK    6  A    between atoms: C6_6  and  C7_8
REMARK    7  A    between atoms: C8_9  and  C9_10
REMARK    8  A    between atoms: C12_13  and  C13_14
REMARK    9  A    between atoms: C15_17  and  C16_18
REMARK   10  A    between atoms: C18_20  and  C19_21
REMARK   11  A    between atoms: N2_22  and  O2_23
REMARK                            x       y       z     vdW  Elec       q    Type
REMARK                         _______ _______ _______ _____ _____    ______ ____
ROOT
ATOM      1  C7  UNL     1       1.645   1.541  20.662  0.00  0.00    +0.000 C 
ATOM      2  C8  UNL     1       2.860   0.898  21.348  0.00  0.00    +0.000 C 
ATOM      3  C9  UNL     1       3.930   1.903  21.755  0.00  0.00    +0.000 C 
ATOM      4  C10 UNL     1       2.239   0.207  22.560  0.00  0.00    +0.000 C 
ATOM      5  C11 UNL     1       0.938  -0.389  22.037  0.00  0.00    +0.000 C 
ATOM      6  C12 UNL     1       0.482   0.538  20.893  0.00  0.00    +0.000 C 
ENDROOT
BRANCH   6   7
ATOM      7  C13 UNL     1      -0.107  -0.193  19.705  0.00  0.00    +0.000 C 
ATOM      8  C14 UNL     1      -1.343   0.238  19.219  0.00  0.00    +0.000 C 
ATOM      9  N1  UNL     1      -1.970  -0.255  18.128  0.00  0.00    +0.000 NA
ATOM     10  C15 UNL     1      -1.361  -1.248  17.447  0.00  0.00    +0.000 C 
ATOM     11  C16 UNL     1      -2.049  -1.778  16.226  0.00  0.00    +0.000 C 
ATOM     12  C17 UNL     1      -0.145  -1.774  17.849  0.00  0.00    +0.000 C 
ATOM     13  C18 UNL     1       0.477  -1.243  18.985  0.00  0.00    +0.000 C 
BRANCH  13  14
ATOM     14  C19 UNL     1       1.733  -1.897  19.385  0.00  0.00    +0.000 C 
ATOM     15  N2  UNL     1       1.855  -2.987  20.080  0.00  0.00    +0.000 NA
BRANCH  15  16
ATOM     16  O2  UNL     1       0.608  -3.548  20.384  0.00  0.00    +0.000 OA
ATOM     17  H   UNL     1       0.357  -3.676  21.278  0.00  0.00    +0.000 HD
ENDBRANCH  15  16
ENDBRANCH  13  14
ENDBRANCH   6   7
BRANCH   1  18
ATOM     18  C6  UNL     1       1.889   1.997  19.223  0.00  0.00    +0.000 C 
ATOM     19  O1  UNL     1       2.656   1.401  18.463  0.00  0.00    +0.000 OA
BRANCH  18  20
ATOM     20  C5  UNL     1       1.171   3.259  18.767  0.00  0.00    +0.000 C 
BRANCH  20  21
ATOM     21  C3  UNL     1       1.025   4.291  19.897  0.00  0.00    +0.000 C 
ATOM     22  C4  UNL     1      -0.423   4.791  19.990  0.00  0.00    +0.000 C 
BRANCH  21  24
ATOM     23  C1  UNL     1       2.930   5.724  20.851  0.00  0.00    +0.000 C 
ATOM     24  C2  UNL     1       1.963   5.498  19.696  0.00  0.00    +0.000 C 
ENDBRANCH  21  24
ENDBRANCH  20  21
ENDBRANCH  18  20
ENDBRANCH   1  18
TORSDOF 7
ENDMDL
