REMARK  Name = laboratorio_evolutivo\Gen6_Mutante_1.pdb
REMARK  11 active torsions:
REMARK  status: ('A' for Active; 'I' for Inactive)
REMARK    1  A    between atoms: C1_1  and  C2_2
REMARK    2  A    between atoms: C2_2  and  C3_3
REMARK    3  A    between atoms: C3_3  and  C4_4
REMARK    4  A    between atoms: C3_3  and  C5_5
REMARK    5  A    between atoms: C5_5  and  C6_6
REMARK    6  A    between atoms: C6_6  and  C7_8
REMARK    7  A    between atoms: C8_9  and  C9_10
REMARK    8  A    between atoms: C12_13  and  C13_14
REMARK    9  A    between atoms: C15_17  and  C16_18
REMARK   10  A    between atoms: C18_20  and  C19_21
REMARK   11  A    between atoms: N2_22  and  O2_23
REMARK                            x       y       z     vdW  Elec       q    Type
REMARK                         _______ _______ _______ _____ _____    ______ ____
ROOT
ATOM      1  C7  UNL     1       0.218  -1.298  -1.147  0.00  0.00    +0.000 C 
ATOM      2  C8  UNL     1      -0.529  -1.635  -2.446  0.00  0.00    +0.000 C 
ATOM      3  C9  UNL     1       0.372  -1.664  -3.675  0.00  0.00    +0.000 C 
ATOM      4  C10 UNL     1      -1.127  -3.008  -2.148  0.00  0.00    +0.000 C 
ATOM      5  C11 UNL     1      -1.600  -2.914  -0.703  0.00  0.00    +0.000 C 
ATOM      6  C12 UNL     1      -0.657  -1.906  -0.017  0.00  0.00    +0.000 C 
ENDROOT
BRANCH   6   7
ATOM      7  C13 UNL     1      -1.350  -0.977   0.957  0.00  0.00    +0.000 C 
ATOM      8  C14 UNL     1      -0.946  -1.011   2.293  0.00  0.00    +0.000 C 
ATOM      9  N1  UNL     1      -1.409  -0.201   3.272  0.00  0.00    +0.000 NA
ATOM     10  C15 UNL     1      -2.340   0.717   2.940  0.00  0.00    +0.000 C 
ATOM     11  C16 UNL     1      -2.836   1.627   4.023  0.00  0.00    +0.000 C 
ATOM     12  C17 UNL     1      -2.835   0.828   1.652  0.00  0.00    +0.000 C 
ATOM     13  C18 UNL     1      -2.338  -0.028   0.663  0.00  0.00    +0.000 C 
BRANCH  13  14
ATOM     14  C19 UNL     1      -2.959   0.107  -0.664  0.00  0.00    +0.000 C 
ATOM     15  N2  UNL     1      -2.857   1.119  -1.471  0.00  0.00    +0.000 NA
BRANCH  15  16
ATOM     16  O2  UNL     1      -2.005   2.106  -0.957  0.00  0.00    +0.000 OA
ATOM     17  H   UNL     1      -1.847   2.890  -1.446  0.00  0.00    +0.000 HD
ENDBRANCH  15  16
ENDBRANCH  13  14
ENDBRANCH   6   7
BRANCH   1  18
ATOM     18  C6  UNL     1       0.616   0.171  -0.999  0.00  0.00    +0.000 C 
ATOM     19  O1  UNL     1       0.273   1.032  -1.812  0.00  0.00    +0.000 OA
BRANCH  18  20
ATOM     20  C5  UNL     1       1.501   0.531   0.186  0.00  0.00    +0.000 C 
BRANCH  20  21
ATOM     21  C3  UNL     1       2.707   1.392  -0.223  0.00  0.00    +0.000 C 
ATOM     22  C4  UNL     1       3.642   0.606  -1.153  0.00  0.00    +0.000 C 
BRANCH  21  24
ATOM     23  C1  UNL     1       2.725   2.817   1.912  0.00  0.00    +0.000 C 
ATOM     24  C2  UNL     1       3.506   1.879   1.002  0.00  0.00    +0.000 C 
ENDBRANCH  21  24
ENDBRANCH  20  21
ENDBRANCH  18  20
ENDBRANCH   1  18
TORSDOF 7
