MODEL 1
REMARK VINA RESULT:    -9.187      0.000      0.000
REMARK INTER + INTRA:         -12.758
REMARK INTER:                 -12.141
REMARK INTRA:                  -0.618
REMARK UNBOUND:                -0.618
REMARK  Name = laboratorio_evolutivo\Gen6_Mutante_8.pdb
REMARK  11 active torsions:
REMARK  status: ('A' for Active; 'I' for Inactive)
REMARK    1  A    between atoms: C1_1  and  C2_2
REMARK    2  A    between atoms: C4_5  and  C5_6
REMARK    3  A    between atoms: C8_9  and  C9_10
REMARK    4  A    between atoms: C10_11  and  C11_12
REMARK    5  A    between atoms: C11_12  and  C12_14
REMARK    6  A    between atoms: C12_14  and  C13_15
REMARK    7  A    between atoms: C13_15  and  C14_16
REMARK    8  A    between atoms: C13_15  and  C15_17
REMARK    9  A    between atoms: C16_18  and  C17_19
REMARK   10  A    between atoms: N2_20  and  O2_21
REMARK   11  A    between atoms: C18_22  and  C19_23
REMARK                            x       y       z     vdW  Elec       q    Type
REMARK                         _______ _______ _______ _____ _____    ______ ____
ROOT
ATOM      1  C1  UNL     1       5.989  69.115  61.583  0.00  0.00    +0.000 C 
ATOM      2  C2  UNL     1       4.916  68.964  62.623  0.00  0.00    +0.000 C 
ATOM      3  N1  UNL     1       5.319  69.184  63.892  0.00  0.00    +0.000 NA
ATOM      4  C3  UNL     1       4.415  69.061  64.887  0.00  0.00    +0.000 C 
ATOM      5  C4  UNL     1       3.080  68.717  64.713  0.00  0.00    +0.000 C 
ATOM      6  C16 UNL     1       2.682  68.489  63.376  0.00  0.00    +0.000 C 
ATOM      7  C18 UNL     1       3.597  68.632  62.303  0.00  0.00    +0.000 C 
ATOM      8  C19 UNL     1       3.184  68.409  60.872  0.00  0.00    +0.000 C 
ENDROOT
BRANCH   5   9
ATOM      9  C5  UNL     1       2.158  68.575  65.907  0.00  0.00    +0.000 C 
ATOM     10  C6  UNL     1       2.654  69.064  67.279  0.00  0.00    +0.000 C 
ATOM     11  C7  UNL     1       1.549  68.591  68.213  0.00  0.00    +0.000 C 
ATOM     12  C8  UNL     1       1.185  67.192  67.698  0.00  0.00    +0.000 C 
ATOM     13  C9  UNL     1      -0.305  66.902  67.846  0.00  0.00    +0.000 C 
ATOM     14  C10 UNL     1       1.650  67.149  66.220  0.00  0.00    +0.000 C 
BRANCH  14  15
ATOM     15  C11 UNL     1       2.740  66.088  66.053  0.00  0.00    +0.000 C 
ATOM     16  O1  UNL     1       3.096  65.701  64.940  0.00  0.00    +0.000 OA
BRANCH  15  17
ATOM     17  C12 UNL     1       3.336  65.529  67.338  0.00  0.00    +0.000 C 
BRANCH  17  18
ATOM     18  C13 UNL     1       4.704  66.128  67.698  0.00  0.00    +0.000 C 
ATOM     19  C14 UNL     1       5.419  65.286  68.759  0.00  0.00    +0.000 C 
ATOM     20  C15 UNL     1       5.578  66.230  66.446  0.00  0.00    +0.000 C 
ENDBRANCH  17  18
ENDBRANCH  15  17
ENDBRANCH  14  15
ENDBRANCH   5   9
BRANCH   6  21
ATOM     21  C17 UNL     1       1.308  68.045  63.031  0.00  0.00    +0.000 C 
ATOM     22  N2  UNL     1       0.326  68.859  62.813  0.00  0.00    +0.000 NA
BRANCH  22  23
ATOM     23  O2  UNL     1      -0.823  68.118  62.517  0.00  0.00    +0.000 OA
ATOM     24  H   UNL     1      -0.920  67.250  62.856  0.00  0.00    +0.000 HD
ENDBRANCH  22  23
ENDBRANCH   6  21
TORSDOF 6
ENDMDL
MODEL 2
REMARK VINA RESULT:    -9.025      1.975      2.548
REMARK INTER + INTRA:         -12.544
REMARK INTER:                 -11.612
REMARK INTRA:                  -0.932
REMARK UNBOUND:                -0.618
REMARK  Name = laboratorio_evolutivo\Gen6_Mutante_8.pdb
REMARK  11 active torsions:
REMARK  status: ('A' for Active; 'I' for Inactive)
REMARK    1  A    between atoms: C1_1  and  C2_2
REMARK    2  A    between atoms: C4_5  and  C5_6
REMARK    3  A    between atoms: C8_9  and  C9_10
REMARK    4  A    between atoms: C10_11  and  C11_12
REMARK    5  A    between atoms: C11_12  and  C12_14
REMARK    6  A    between atoms: C12_14  and  C13_15
REMARK    7  A    between atoms: C13_15  and  C14_16
REMARK    8  A    between atoms: C13_15  and  C15_17
REMARK    9  A    between atoms: C16_18  and  C17_19
REMARK   10  A    between atoms: N2_20  and  O2_21
REMARK   11  A    between atoms: C18_22  and  C19_23
REMARK                            x       y       z     vdW  Elec       q    Type
REMARK                         _______ _______ _______ _____ _____    ______ ____
ROOT
ATOM      1  C1  UNL     1       3.282  68.952  60.585  0.00  0.00    +0.000 C 
ATOM      2  C2  UNL     1       2.972  68.690  62.031  0.00  0.00    +0.000 C 
ATOM      3  N1  UNL     1       4.033  68.758  62.862  0.00  0.00    +0.000 NA
ATOM      4  C3  UNL     1       3.838  68.527  64.178  0.00  0.00    +0.000 C 
ATOM      5  C4  UNL     1       2.616  68.216  64.760  0.00  0.00    +0.000 C 
ATOM      6  C16 UNL     1       1.520  68.148  63.870  0.00  0.00    +0.000 C 
ATOM      7  C18 UNL     1       1.681  68.407  62.486  0.00  0.00    +0.000 C 
ATOM      8  C19 UNL     1       0.521  68.355  61.527  0.00  0.00    +0.000 C 
ENDROOT
BRANCH   5   9
ATOM      9  C5  UNL     1       2.516  67.944  66.247  0.00  0.00    +0.000 C 
ATOM     10  C6  UNL     1       3.440  68.723  67.199  0.00  0.00    +0.000 C 
ATOM     11  C7  UNL     1       3.171  68.051  68.538  0.00  0.00    +0.000 C 
ATOM     12  C8  UNL     1       3.077  66.556  68.204  0.00  0.00    +0.000 C 
ATOM     13  C9  UNL     1       2.047  65.843  69.074  0.00  0.00    +0.000 C 
ATOM     14  C10 UNL     1       2.727  66.479  66.696  0.00  0.00    +0.000 C 
BRANCH  14  15
ATOM     15  C11 UNL     1       3.865  65.791  65.937  0.00  0.00    +0.000 C 
ATOM     16  O1  UNL     1       5.041  65.950  66.262  0.00  0.00    +0.000 OA
BRANCH  15  17
ATOM     17  C12 UNL     1       3.456  64.926  64.753  0.00  0.00    +0.000 C 
BRANCH  17  18
ATOM     18  C13 UNL     1       4.607  64.623  63.781  0.00  0.00    +0.000 C 
ATOM     19  C14 UNL     1       4.648  63.137  63.414  0.00  0.00    +0.000 C 
ATOM     20  C15 UNL     1       4.458  65.465  62.513  0.00  0.00    +0.000 C 
ENDBRANCH  17  18
ENDBRANCH  15  17
ENDBRANCH  14  15
ENDBRANCH   5   9
BRANCH   6  21
ATOM     21  C17 UNL     1       0.161  67.758  64.325  0.00  0.00    +0.000 C 
ATOM     22  N2  UNL     1      -0.593  68.513  65.058  0.00  0.00    +0.000 NA
BRANCH  22  23
ATOM     23  O2  UNL     1      -1.798  67.847  65.306  0.00  0.00    +0.000 OA
ATOM     24  H   UNL     1      -1.875  67.277  66.045  0.00  0.00    +0.000 HD
ENDBRANCH  22  23
ENDBRANCH   6  21
TORSDOF 6
ENDMDL
MODEL 3
REMARK VINA RESULT:    -8.556      2.320      5.585
REMARK INTER + INTRA:         -11.924
REMARK INTER:                 -11.109
REMARK INTRA:                  -0.815
REMARK UNBOUND:                -0.618
REMARK  Name = laboratorio_evolutivo\Gen6_Mutante_8.pdb
REMARK  11 active torsions:
REMARK  status: ('A' for Active; 'I' for Inactive)
REMARK    1  A    between atoms: C1_1  and  C2_2
REMARK    2  A    between atoms: C4_5  and  C5_6
REMARK    3  A    between atoms: C8_9  and  C9_10
REMARK    4  A    between atoms: C10_11  and  C11_12
REMARK    5  A    between atoms: C11_12  and  C12_14
REMARK    6  A    between atoms: C12_14  and  C13_15
REMARK    7  A    between atoms: C13_15  and  C14_16
REMARK    8  A    between atoms: C13_15  and  C15_17
REMARK    9  A    between atoms: C16_18  and  C17_19
REMARK   10  A    between atoms: N2_20  and  O2_21
REMARK   11  A    between atoms: C18_22  and  C19_23
REMARK                            x       y       z     vdW  Elec       q    Type
REMARK                         _______ _______ _______ _____ _____    ______ ____
ROOT
ATOM      1  C1  UNL     1       3.671  64.281  69.714  0.00  0.00    +0.000 C 
ATOM      2  C2  UNL     1       3.858  64.922  68.369  0.00  0.00    +0.000 C 
ATOM      3  N1  UNL     1       4.130  66.244  68.401  0.00  0.00    +0.000 NA
ATOM      4  C3  UNL     1       4.305  66.895  67.231  0.00  0.00    +0.000 C 
ATOM      5  C4  UNL     1       4.223  66.312  65.974  0.00  0.00    +0.000 C 
ATOM      6  C16 UNL     1       3.935  64.928  65.965  0.00  0.00    +0.000 C 
ATOM      7  C18 UNL     1       3.768  64.205  67.173  0.00  0.00    +0.000 C 
ATOM      8  C19 UNL     1       3.477  62.727  67.181  0.00  0.00    +0.000 C 
ENDROOT
BRANCH   5   9
ATOM      9  C5  UNL     1       4.405  67.146  64.723  0.00  0.00    +0.000 C 
ATOM     10  C6  UNL     1       4.785  68.629  64.878  0.00  0.00    +0.000 C 
ATOM     11  C7  UNL     1       4.693  69.141  63.448  0.00  0.00    +0.000 C 
ATOM     12  C8  UNL     1       3.440  68.463  62.878  0.00  0.00    +0.000 C 
ATOM     13  C9  UNL     1       3.603  68.119  61.401  0.00  0.00    +0.000 C 
ATOM     14  C10 UNL     1       3.203  67.205  63.752  0.00  0.00    +0.000 C 
BRANCH  14  15
ATOM     15  C11 UNL     1       1.864  67.331  64.483  0.00  0.00    +0.000 C 
ATOM     16  O1  UNL     1       1.054  66.405  64.504  0.00  0.00    +0.000 OA
BRANCH  15  17
ATOM     17  C12 UNL     1       1.590  68.669  65.158  0.00  0.00    +0.000 C 
BRANCH  17  18
ATOM     18  C13 UNL     1       1.146  68.543  66.623  0.00  0.00    +0.000 C 
ATOM     19  C14 UNL     1       1.912  69.519  67.521  0.00  0.00    +0.000 C 
ATOM     20  C15 UNL     1      -0.356  68.804  66.741  0.00  0.00    +0.000 C 
ENDBRANCH  17  18
ENDBRANCH  15  17
ENDBRANCH  14  15
ENDBRANCH   5   9
BRANCH   6  21
ATOM     21  C17 UNL     1       3.744  64.173  64.700  0.00  0.00    +0.000 C 
ATOM     22  N2  UNL     1       4.695  63.949  63.851  0.00  0.00    +0.000 NA
BRANCH  22  23
ATOM     23  O2  UNL     1       4.179  63.217  62.776  0.00  0.00    +0.000 OA
ATOM     24  H   UNL     1       4.317  63.514  61.898  0.00  0.00    +0.000 HD
ENDBRANCH  22  23
ENDBRANCH   6  21
TORSDOF 6
ENDMDL
MODEL 4
REMARK VINA RESULT:    -8.343      3.036      5.793
REMARK INTER + INTRA:         -11.643
REMARK INTER:                 -11.839
REMARK INTRA:                   0.196
REMARK UNBOUND:                -0.618
REMARK  Name = laboratorio_evolutivo\Gen6_Mutante_8.pdb
REMARK  11 active torsions:
REMARK  status: ('A' for Active; 'I' for Inactive)
REMARK    1  A    between atoms: C1_1  and  C2_2
REMARK    2  A    between atoms: C4_5  and  C5_6
REMARK    3  A    between atoms: C8_9  and  C9_10
REMARK    4  A    between atoms: C10_11  and  C11_12
REMARK    5  A    between atoms: C11_12  and  C12_14
REMARK    6  A    between atoms: C12_14  and  C13_15
REMARK    7  A    between atoms: C13_15  and  C14_16
REMARK    8  A    between atoms: C13_15  and  C15_17
REMARK    9  A    between atoms: C16_18  and  C17_19
REMARK   10  A    between atoms: N2_20  and  O2_21
REMARK   11  A    between atoms: C18_22  and  C19_23
REMARK                            x       y       z     vdW  Elec       q    Type
REMARK                         _______ _______ _______ _____ _____    ______ ____
ROOT
ATOM      1  C1  UNL     1       3.273  62.906  70.531  0.00  0.00    +0.000 C 
ATOM      2  C2  UNL     1       3.420  64.065  69.587  0.00  0.00    +0.000 C 
ATOM      3  N1  UNL     1       4.639  64.186  69.019  0.00  0.00    +0.000 NA
ATOM      4  C3  UNL     1       4.853  65.208  68.163  0.00  0.00    +0.000 C 
ATOM      5  C4  UNL     1       3.910  66.167  67.813  0.00  0.00    +0.000 C 
ATOM      6  C16 UNL     1       2.643  66.021  68.421  0.00  0.00    +0.000 C 
ATOM      7  C18 UNL     1       2.373  64.947  69.307  0.00  0.00    +0.000 C 
ATOM      8  C19 UNL     1       1.022  64.768  69.950  0.00  0.00    +0.000 C 
ENDROOT
BRANCH   5   9
ATOM      9  C5  UNL     1       4.270  67.292  66.865  0.00  0.00    +0.000 C 
ATOM     10  C6  UNL     1       3.336  68.513  66.787  0.00  0.00    +0.000 C 
ATOM     11  C7  UNL     1       3.928  69.302  65.628  0.00  0.00    +0.000 C 
ATOM     12  C8  UNL     1       4.304  68.236  64.590  0.00  0.00    +0.000 C 
ATOM     13  C9  UNL     1       5.575  68.605  63.833  0.00  0.00    +0.000 C 
ATOM     14  C10 UNL     1       4.452  66.910  65.378  0.00  0.00    +0.000 C 
BRANCH  14  15
ATOM     15  C11 UNL     1       3.402  65.905  64.898  0.00  0.00    +0.000 C 
ATOM     16  O1  UNL     1       2.218  66.221  64.781  0.00  0.00    +0.000 OA
BRANCH  15  17
ATOM     17  C12 UNL     1       3.904  64.499  64.600  0.00  0.00    +0.000 C 
BRANCH  17  18
ATOM     18  C13 UNL     1       4.920  64.436  63.449  0.00  0.00    +0.000 C 
ATOM     19  C14 UNL     1       5.049  63.013  62.898  0.00  0.00    +0.000 C 
ATOM     20  C15 UNL     1       4.502  65.388  62.327  0.00  0.00    +0.000 C 
ENDBRANCH  17  18
ENDBRANCH  15  17
ENDBRANCH  14  15
ENDBRANCH   5   9
BRANCH   6  21
ATOM     21  C17 UNL     1       1.550  67.003  68.206  0.00  0.00    +0.000 C 
ATOM     22  N2  UNL     1       0.344  66.669  67.876  0.00  0.00    +0.000 NA
BRANCH  22  23
ATOM     23  O2  UNL     1      -0.430  67.829  67.751  0.00  0.00    +0.000 OA
ATOM     24  H   UNL     1      -0.472  68.442  68.458  0.00  0.00    +0.000 HD
ENDBRANCH  22  23
ENDBRANCH   6  21
TORSDOF 6
ENDMDL
MODEL 5
REMARK VINA RESULT:    -7.805      6.929      9.226
REMARK INTER + INTRA:         -10.933
REMARK INTER:                 -10.158
REMARK INTRA:                  -0.775
REMARK UNBOUND:                -0.618
REMARK  Name = laboratorio_evolutivo\Gen6_Mutante_8.pdb
REMARK  11 active torsions:
REMARK  status: ('A' for Active; 'I' for Inactive)
REMARK    1  A    between atoms: C1_1  and  C2_2
REMARK    2  A    between atoms: C4_5  and  C5_6
REMARK    3  A    between atoms: C8_9  and  C9_10
REMARK    4  A    between atoms: C10_11  and  C11_12
REMARK    5  A    between atoms: C11_12  and  C12_14
REMARK    6  A    between atoms: C12_14  and  C13_15
REMARK    7  A    between atoms: C13_15  and  C14_16
REMARK    8  A    between atoms: C13_15  and  C15_17
REMARK    9  A    between atoms: C16_18  and  C17_19
REMARK   10  A    between atoms: N2_20  and  O2_21
REMARK   11  A    between atoms: C18_22  and  C19_23
REMARK                            x       y       z     vdW  Elec       q    Type
REMARK                         _______ _______ _______ _____ _____    ______ ____
ROOT
ATOM      1  C1  UNL     1       2.839  65.907  68.873  0.00  0.00    +0.000 C 
ATOM      2  C2  UNL     1       2.207  64.646  69.389  0.00  0.00    +0.000 C 
ATOM      3  N1  UNL     1       1.267  64.828  70.341  0.00  0.00    +0.000 NA
ATOM      4  C3  UNL     1       0.657  63.742  70.861  0.00  0.00    +0.000 C 
ATOM      5  C4  UNL     1       0.921  62.428  70.497  0.00  0.00    +0.000 C 
ATOM      6  C16 UNL     1       1.910  62.262  69.501  0.00  0.00    +0.000 C 
ATOM      7  C18 UNL     1       2.556  63.379  68.914  0.00  0.00    +0.000 C 
ATOM      8  C19 UNL     1       3.599  63.219  67.840  0.00  0.00    +0.000 C 
ENDROOT
BRANCH   5   9
ATOM      9  C5  UNL     1       0.198  61.280  71.172  0.00  0.00    +0.000 C 
ATOM     10  C6  UNL     1      -1.031  61.598  72.042  0.00  0.00    +0.000 C 
ATOM     11  C7  UNL     1      -1.346  60.246  72.667  0.00  0.00    +0.000 C 
ATOM     12  C8  UNL     1       0.027  59.655  73.015  0.00  0.00    +0.000 C 
ATOM     13  C9  UNL     1       0.057  58.141  72.830  0.00  0.00    +0.000 C 
ATOM     14  C10 UNL     1       1.046  60.380  72.099  0.00  0.00    +0.000 C 
BRANCH  14  15
ATOM     15  C11 UNL     1       2.029  61.182  72.956  0.00  0.00    +0.000 C 
ATOM     16  O1  UNL     1       1.637  61.998  73.789  0.00  0.00    +0.000 OA
BRANCH  15  17
ATOM     17  C12 UNL     1       3.508  60.926  72.699  0.00  0.00    +0.000 C 
BRANCH  17  18
ATOM     18  C13 UNL     1       3.993  59.553  73.189  0.00  0.00    +0.000 C 
ATOM     19  C14 UNL     1       3.318  59.165  74.508  0.00  0.00    +0.000 C 
ATOM     20  C15 UNL     1       3.709  58.487  72.131  0.00  0.00    +0.000 C 
ENDBRANCH  17  18
ENDBRANCH  15  17
ENDBRANCH  14  15
ENDBRANCH   5   9
BRANCH   6  21
ATOM     21  C17 UNL     1       2.357  60.918  69.053  0.00  0.00    +0.000 C 
ATOM     22  N2  UNL     1       3.528  60.431  69.311  0.00  0.00    +0.000 NA
BRANCH  22  23
ATOM     23  O2  UNL     1       3.624  59.155  68.747  0.00  0.00    +0.000 OA
ATOM     24  H   UNL     1       4.086  59.032  67.941  0.00  0.00    +0.000 HD
ENDBRANCH  22  23
ENDBRANCH   6  21
TORSDOF 6
ENDMDL
MODEL 6
REMARK VINA RESULT:    -7.654      1.789      4.801
REMARK INTER + INTRA:         -10.733
REMARK INTER:                 -11.761
REMARK INTRA:                   1.029
REMARK UNBOUND:                -0.618
REMARK  Name = laboratorio_evolutivo\Gen6_Mutante_8.pdb
REMARK  11 active torsions:
REMARK  status: ('A' for Active; 'I' for Inactive)
REMARK    1  A    between atoms: C1_1  and  C2_2
REMARK    2  A    between atoms: C4_5  and  C5_6
REMARK    3  A    between atoms: C8_9  and  C9_10
REMARK    4  A    between atoms: C10_11  and  C11_12
REMARK    5  A    between atoms: C11_12  and  C12_14
REMARK    6  A    between atoms: C12_14  and  C13_15
REMARK    7  A    between atoms: C13_15  and  C14_16
REMARK    8  A    between atoms: C13_15  and  C15_17
REMARK    9  A    between atoms: C16_18  and  C17_19
REMARK   10  A    between atoms: N2_20  and  O2_21
REMARK   11  A    between atoms: C18_22  and  C19_23
REMARK                            x       y       z     vdW  Elec       q    Type
REMARK                         _______ _______ _______ _____ _____    ______ ____
ROOT
ATOM      1  C1  UNL     1      -0.553  66.184  69.394  0.00  0.00    +0.000 C 
ATOM      2  C2  UNL     1       0.120  66.730  68.167  0.00  0.00    +0.000 C 
ATOM      3  N1  UNL     1       1.424  67.040  68.323  0.00  0.00    +0.000 NA
ATOM      4  C3  UNL     1       2.099  67.544  67.268  0.00  0.00    +0.000 C 
ATOM      5  C4  UNL     1       1.554  67.779  66.012  0.00  0.00    +0.000 C 
ATOM      6  C16 UNL     1       0.187  67.449  65.872  0.00  0.00    +0.000 C 
ATOM      7  C18 UNL     1      -0.548  66.896  66.951  0.00  0.00    +0.000 C 
ATOM      8  C19 UNL     1      -2.001  66.524  66.813  0.00  0.00    +0.000 C 
ENDROOT
BRANCH   5   9
ATOM      9  C5  UNL     1       2.397  68.380  64.906  0.00  0.00    +0.000 C 
ATOM     10  C6  UNL     1       1.906  68.247  63.454  0.00  0.00    +0.000 C 
ATOM     11  C7  UNL     1       3.082  68.797  62.660  0.00  0.00    +0.000 C 
ATOM     12  C8  UNL     1       4.321  68.239  63.374  0.00  0.00    +0.000 C 
ATOM     13  C9  UNL     1       5.480  69.229  63.357  0.00  0.00    +0.000 C 
ATOM     14  C10 UNL     1       3.862  67.893  64.813  0.00  0.00    +0.000 C 
BRANCH  14  15
ATOM     15  C11 UNL     1       3.995  66.387  65.049  0.00  0.00    +0.000 C 
ATOM     16  O1  UNL     1       3.288  65.578  64.449  0.00  0.00    +0.000 OA
BRANCH  15  17
ATOM     17  C12 UNL     1       5.031  65.957  66.079  0.00  0.00    +0.000 C 
BRANCH  17  18
ATOM     18  C13 UNL     1       4.422  65.479  67.406  0.00  0.00    +0.000 C 
ATOM     19  C14 UNL     1       3.797  64.088  67.262  0.00  0.00    +0.000 C 
ATOM     20  C15 UNL     1       5.494  65.451  68.497  0.00  0.00    +0.000 C 
ENDBRANCH  17  18
ENDBRANCH  15  17
ENDBRANCH  14  15
ENDBRANCH   5   9
BRANCH   6  21
ATOM     21  C17 UNL     1      -0.559  67.707  64.615  0.00  0.00    +0.000 C 
ATOM     22  N2  UNL     1      -1.552  68.534  64.529  0.00  0.00    +0.000 NA
BRANCH  22  23
ATOM     23  O2  UNL     1      -2.027  68.538  63.213  0.00  0.00    +0.000 OA
ATOM     24  H   UNL     1      -2.330  69.336  62.827  0.00  0.00    +0.000 HD
ENDBRANCH  22  23
ENDBRANCH   6  21
TORSDOF 6
ENDMDL
MODEL 7
REMARK VINA RESULT:    -7.643      7.622      9.999
REMARK INTER + INTRA:         -10.718
REMARK INTER:                  -9.696
REMARK INTRA:                  -1.022
REMARK UNBOUND:                -0.618
REMARK  Name = laboratorio_evolutivo\Gen6_Mutante_8.pdb
REMARK  11 active torsions:
REMARK  status: ('A' for Active; 'I' for Inactive)
REMARK    1  A    between atoms: C1_1  and  C2_2
REMARK    2  A    between atoms: C4_5  and  C5_6
REMARK    3  A    between atoms: C8_9  and  C9_10
REMARK    4  A    between atoms: C10_11  and  C11_12
REMARK    5  A    between atoms: C11_12  and  C12_14
REMARK    6  A    between atoms: C12_14  and  C13_15
REMARK    7  A    between atoms: C13_15  and  C14_16
REMARK    8  A    between atoms: C13_15  and  C15_17
REMARK    9  A    between atoms: C16_18  and  C17_19
REMARK   10  A    between atoms: N2_20  and  O2_21
REMARK   11  A    between atoms: C18_22  and  C19_23
REMARK                            x       y       z     vdW  Elec       q    Type
REMARK                         _______ _______ _______ _____ _____    ______ ____
ROOT
ATOM      1  C1  UNL     1       2.468  65.261  69.168  0.00  0.00    +0.000 C 
ATOM      2  C2  UNL     1       1.967  63.955  69.714  0.00  0.00    +0.000 C 
ATOM      3  N1  UNL     1       1.028  64.064  70.678  0.00  0.00    +0.000 NA
ATOM      4  C3  UNL     1       0.531  62.934  71.225  0.00  0.00    +0.000 C 
ATOM      5  C4  UNL     1       0.914  61.644  70.878  0.00  0.00    +0.000 C 
ATOM      6  C16 UNL     1       1.899  61.555  69.868  0.00  0.00    +0.000 C 
ATOM      7  C18 UNL     1       2.427  62.718  69.253  0.00  0.00    +0.000 C 
ATOM      8  C19 UNL     1       3.465  62.640  68.164  0.00  0.00    +0.000 C 
ENDROOT
BRANCH   5   9
ATOM      9  C5  UNL     1       0.313  60.445  71.582  0.00  0.00    +0.000 C 
ATOM     10  C6  UNL     1      -0.998  60.635  72.365  0.00  0.00    +0.000 C 
ATOM     11  C7  UNL     1      -1.164  59.288  73.054  0.00  0.00    +0.000 C 
ATOM     12  C8  UNL     1       0.253  58.913  73.509  0.00  0.00    +0.000 C 
ATOM     13  C9  UNL     1       0.499  57.410  73.420  0.00  0.00    +0.000 C 
ATOM     14  C10 UNL     1       1.218  59.722  72.606  0.00  0.00    +0.000 C 
BRANCH  14  15
ATOM     15  C11 UNL     1       2.029  60.697  73.463  0.00  0.00    +0.000 C 
ATOM     16  O1  UNL     1       3.070  61.205  73.046  0.00  0.00    +0.000 OA
BRANCH  15  17
ATOM     17  C12 UNL     1       1.485  60.980  74.857  0.00  0.00    +0.000 C 
BRANCH  17  18
ATOM     18  C13 UNL     1       0.420  62.086  74.893  0.00  0.00    +0.000 C 
ATOM     19  C14 UNL     1      -0.428  61.999  76.166  0.00  0.00    +0.000 C 
ATOM     20  C15 UNL     1       1.086  63.460  74.809  0.00  0.00    +0.000 C 
ENDBRANCH  17  18
ENDBRANCH  15  17
ENDBRANCH  14  15
ENDBRANCH   5   9
BRANCH   6  21
ATOM     21  C17 UNL     1       2.465  60.253  69.434  0.00  0.00    +0.000 C 
ATOM     22  N2  UNL     1       3.548  59.744  69.927  0.00  0.00    +0.000 NA
BRANCH  22  23
ATOM     23  O2  UNL     1       3.801  58.518  69.301  0.00  0.00    +0.000 OA
ATOM     24  H   UNL     1       3.096  58.033  68.921  0.00  0.00    +0.000 HD
ENDBRANCH  22  23
ENDBRANCH   6  21
TORSDOF 6
ENDMDL
MODEL 8
REMARK VINA RESULT:    -6.849      8.378     10.797
REMARK INTER + INTRA:          -9.669
REMARK INTER:                  -8.795
REMARK INTRA:                  -0.874
REMARK UNBOUND:                -0.618
REMARK  Name = laboratorio_evolutivo\Gen6_Mutante_8.pdb
REMARK  11 active torsions:
REMARK  status: ('A' for Active; 'I' for Inactive)
REMARK    1  A    between atoms: C1_1  and  C2_2
REMARK    2  A    between atoms: C4_5  and  C5_6
REMARK    3  A    between atoms: C8_9  and  C9_10
REMARK    4  A    between atoms: C10_11  and  C11_12
REMARK    5  A    between atoms: C11_12  and  C12_14
REMARK    6  A    between atoms: C12_14  and  C13_15
REMARK    7  A    between atoms: C13_15  and  C14_16
REMARK    8  A    between atoms: C13_15  and  C15_17
REMARK    9  A    between atoms: C16_18  and  C17_19
REMARK   10  A    between atoms: N2_20  and  O2_21
REMARK   11  A    between atoms: C18_22  and  C19_23
REMARK                            x       y       z     vdW  Elec       q    Type
REMARK                         _______ _______ _______ _____ _____    ______ ____
ROOT
ATOM      1  C1  UNL     1       3.713  64.049  69.448  0.00  0.00    +0.000 C 
ATOM      2  C2  UNL     1       2.825  63.015  70.080  0.00  0.00    +0.000 C 
ATOM      3  N1  UNL     1       1.658  63.488  70.566  0.00  0.00    +0.000 NA
ATOM      4  C3  UNL     1       0.807  62.621  71.156  0.00  0.00    +0.000 C 
ATOM      5  C4  UNL     1       1.036  61.260  71.313  0.00  0.00    +0.000 C 
ATOM      6  C16 UNL     1       2.265  60.789  70.797  0.00  0.00    +0.000 C 
ATOM      7  C18 UNL     1       3.173  61.664  70.150  0.00  0.00    +0.000 C 
ATOM      8  C19 UNL     1       4.479  61.174  69.582  0.00  0.00    +0.000 C 
ENDROOT
BRANCH   5   9
ATOM      9  C5  UNL     1       0.024  60.384  72.022  0.00  0.00    +0.000 C 
ATOM     10  C6  UNL     1      -1.285  61.026  72.514  0.00  0.00    +0.000 C 
ATOM     11  C7  UNL     1      -1.925  59.895  73.307  0.00  0.00    +0.000 C 
ATOM     12  C8  UNL     1      -0.756  59.250  74.065  0.00  0.00    +0.000 C 
ATOM     13  C9  UNL     1      -0.929  57.741  74.197  0.00  0.00    +0.000 C 
ATOM     14  C10 UNL     1       0.523  59.630  73.276  0.00  0.00    +0.000 C 
BRANCH  14  15
ATOM     15  C11 UNL     1       1.433  60.492  74.154  0.00  0.00    +0.000 C 
ATOM     16  O1  UNL     1       1.078  61.600  74.556  0.00  0.00    +0.000 OA
BRANCH  15  17
ATOM     17  C12 UNL     1       2.802  59.908  74.478  0.00  0.00    +0.000 C 
BRANCH  17  18
ATOM     18  C13 UNL     1       2.750  58.474  75.025  0.00  0.00    +0.000 C 
ATOM     19  C14 UNL     1       4.138  57.828  75.026  0.00  0.00    +0.000 C 
ATOM     20  C15 UNL     1       2.180  58.473  76.444  0.00  0.00    +0.000 C 
ENDBRANCH  17  18
ENDBRANCH  15  17
ENDBRANCH  14  15
ENDBRANCH   5   9
BRANCH   6  21
ATOM     21  C17 UNL     1       2.689  59.374  70.948  0.00  0.00    +0.000 C 
ATOM     22  N2  UNL     1       2.424  58.451  70.080  0.00  0.00    +0.000 NA
BRANCH  22  23
ATOM     23  O2  UNL     1       2.963  57.239  70.526  0.00  0.00    +0.000 OA
ATOM     24  H   UNL     1       2.690  56.433  70.135  0.00  0.00    +0.000 HD
ENDBRANCH  22  23
ENDBRANCH   6  21
TORSDOF 6
ENDMDL
MODEL 9
REMARK VINA RESULT:    -6.823      9.223     11.819
REMARK INTER + INTRA:          -9.635
REMARK INTER:                  -8.619
REMARK INTRA:                  -1.016
REMARK UNBOUND:                -0.618
REMARK  Name = laboratorio_evolutivo\Gen6_Mutante_8.pdb
REMARK  11 active torsions:
REMARK  status: ('A' for Active; 'I' for Inactive)
REMARK    1  A    between atoms: C1_1  and  C2_2
REMARK    2  A    between atoms: C4_5  and  C5_6
REMARK    3  A    between atoms: C8_9  and  C9_10
REMARK    4  A    between atoms: C10_11  and  C11_12
REMARK    5  A    between atoms: C11_12  and  C12_14
REMARK    6  A    between atoms: C12_14  and  C13_15
REMARK    7  A    between atoms: C13_15  and  C14_16
REMARK    8  A    between atoms: C13_15  and  C15_17
REMARK    9  A    between atoms: C16_18  and  C17_19
REMARK   10  A    between atoms: N2_20  and  O2_21
REMARK   11  A    between atoms: C18_22  and  C19_23
REMARK                            x       y       z     vdW  Elec       q    Type
REMARK                         _______ _______ _______ _____ _____    ______ ____
ROOT
ATOM      1  C1  UNL     1       0.868  64.066  70.697  0.00  0.00    +0.000 C 
ATOM      2  C2  UNL     1       0.837  62.606  71.052  0.00  0.00    +0.000 C 
ATOM      3  N1  UNL     1       0.080  62.297  72.125  0.00  0.00    +0.000 NA
ATOM      4  C3  UNL     1       0.007  61.006  72.513  0.00  0.00    +0.000 C 
ATOM      5  C4  UNL     1       0.659  59.949  71.892  0.00  0.00    +0.000 C 
ATOM      6  C16 UNL     1       1.447  60.297  70.771  0.00  0.00    +0.000 C 
ATOM      7  C18 UNL     1       1.530  61.638  70.321  0.00  0.00    +0.000 C 
ATOM      8  C19 UNL     1       2.353  62.023  69.118  0.00  0.00    +0.000 C 
ENDROOT
BRANCH   5   9
ATOM      9  C5  UNL     1       0.532  58.539  72.432  0.00  0.00    +0.000 C 
ATOM     10  C6  UNL     1      -0.637  58.219  73.379  0.00  0.00    +0.000 C 
ATOM     11  C7  UNL     1      -0.314  56.801  73.829  0.00  0.00    +0.000 C 
ATOM     12  C8  UNL     1       1.205  56.805  74.047  0.00  0.00    +0.000 C 
ATOM     13  C9  UNL     1       1.837  55.472  73.662  0.00  0.00    +0.000 C 
ATOM     14  C10 UNL     1       1.752  57.983  73.202  0.00  0.00    +0.000 C 
BRANCH  14  15
ATOM     15  C11 UNL     1       2.390  59.026  74.122  0.00  0.00    +0.000 C 
ATOM     16  O1  UNL     1       3.249  59.806  73.712  0.00  0.00    +0.000 OA
BRANCH  15  17
ATOM     17  C12 UNL     1       1.917  59.023  75.570  0.00  0.00    +0.000 C 
BRANCH  17  18
ATOM     18  C13 UNL     1       3.060  58.939  76.594  0.00  0.00    +0.000 C 
ATOM     19  C14 UNL     1       2.528  59.005  78.028  0.00  0.00    +0.000 C 
ATOM     20  C15 UNL     1       3.848  57.643  76.396  0.00  0.00    +0.000 C 
ENDBRANCH  17  18
ENDBRANCH  15  17
ENDBRANCH  14  15
ENDBRANCH   5   9
BRANCH   6  21
ATOM     21  C17 UNL     1       2.263  59.293  70.042  0.00  0.00    +0.000 C 
ATOM     22  N2  UNL     1       3.496  59.026  70.332  0.00  0.00    +0.000 NA
BRANCH  22  23
ATOM     23  O2  UNL     1       3.966  58.042  69.456  0.00  0.00    +0.000 OA
ATOM     24  H   UNL     1       4.638  57.451  69.733  0.00  0.00    +0.000 HD
ENDBRANCH  22  23
ENDBRANCH   6  21
TORSDOF 6
ENDMDL
