REMARK  Name = laboratorio_evolutivo\Gen6_Mutante_8.pdb
REMARK  11 active torsions:
REMARK  status: ('A' for Active; 'I' for Inactive)
REMARK    1  A    between atoms: C1_1  and  C2_2
REMARK    2  A    between atoms: C4_5  and  C5_6
REMARK    3  A    between atoms: C8_9  and  C9_10
REMARK    4  A    between atoms: C10_11  and  C11_12
REMARK    5  A    between atoms: C11_12  and  C12_14
REMARK    6  A    between atoms: C12_14  and  C13_15
REMARK    7  A    between atoms: C13_15  and  C14_16
REMARK    8  A    between atoms: C13_15  and  C15_17
REMARK    9  A    between atoms: C16_18  and  C17_19
REMARK   10  A    between atoms: N2_20  and  O2_21
REMARK   11  A    between atoms: C18_22  and  C19_23
REMARK                            x       y       z     vdW  Elec       q    Type
REMARK                         _______ _______ _______ _____ _____    ______ ____
ROOT
ATOM      1  C1  UNL     1      -3.280   2.414   3.080  0.00  0.00    +0.000 C 
ATOM      2  C2  UNL     1      -2.603   1.336   2.283  0.00  0.00    +0.000 C 
ATOM      3  N1  UNL     1      -1.799   0.520   2.997  0.00  0.00    +0.000 NA
ATOM      4  C3  UNL     1      -1.148  -0.471   2.351  0.00  0.00    +0.000 C 
ATOM      5  C4  UNL     1      -1.233  -0.725   0.988  0.00  0.00    +0.000 C 
ATOM      6  C16 UNL     1      -2.079   0.143   0.261  0.00  0.00    +0.000 C 
ATOM      7  C18 UNL     1      -2.797   1.180   0.908  0.00  0.00    +0.000 C 
ATOM      8  C19 UNL     1      -3.715   2.103   0.150  0.00  0.00    +0.000 C 
ENDROOT
BRANCH   5   9
ATOM      9  C5  UNL     1      -0.431  -1.847   0.361  0.00  0.00    +0.000 C 
ATOM     10  C6  UNL     1       0.203  -2.901   1.285  0.00  0.00    +0.000 C 
ATOM     11  C7  UNL     1       1.047  -3.718   0.317  0.00  0.00    +0.000 C 
ATOM     12  C8  UNL     1       1.670  -2.676  -0.622  0.00  0.00    +0.000 C 
ATOM     13  C9  UNL     1       1.802  -3.203  -2.047  0.00  0.00    +0.000 C 
ATOM     14  C10 UNL     1       0.755  -1.428  -0.538  0.00  0.00    +0.000 C 
BRANCH  14  15
ATOM     15  C11 UNL     1       1.542  -0.250   0.041  0.00  0.00    +0.000 C 
ATOM     16  O1  UNL     1       2.105  -0.328   1.133  0.00  0.00    +0.000 OA
BRANCH  15  17
ATOM     17  C12 UNL     1       1.566   1.020  -0.799  0.00  0.00    +0.000 C 
BRANCH  17  18
ATOM     18  C13 UNL     1       2.507   2.105  -0.253  0.00  0.00    +0.000 C 
ATOM     19  C14 UNL     1       3.974   1.749  -0.510  0.00  0.00    +0.000 C 
ATOM     20  C15 UNL     1       2.183   3.454  -0.897  0.00  0.00    +0.000 C 
ENDBRANCH  17  18
ENDBRANCH  15  17
ENDBRANCH  14  15
ENDBRANCH   5   9
BRANCH   6  21
ATOM     21  C17 UNL     1      -2.222   0.048  -1.214  0.00  0.00    +0.000 C 
ATOM     22  N2  UNL     1      -2.230  -1.073  -1.861  0.00  0.00    +0.000 NA
BRANCH  22  23
ATOM     23  O2  UNL     1      -2.378  -0.808  -3.227  0.00  0.00    +0.000 OA
ATOM     24  H   UNL     1      -2.403  -1.515  -3.841  0.00  0.00    +0.000 HD
ENDBRANCH  22  23
ENDBRANCH   6  21
TORSDOF 6
