MODEL 1
REMARK VINA RESULT:    -6.850      0.000      0.000
REMARK INTER + INTRA:         -10.431
REMARK INTER:                  -9.053
REMARK INTRA:                  -1.378
REMARK UNBOUND:                -1.378
REMARK  Name = laboratorio_evolutivo\Gen6_Mutante_7.pdb
REMARK  11 active torsions:
REMARK  status: ('A' for Active; 'I' for Inactive)
REMARK    1  A    between atoms: C1_1  and  C2_2
REMARK    2  A    between atoms: C4_4  and  C5_5
REMARK    3  A    between atoms: N1_6  and  O1_7
REMARK    4  A    between atoms: C6_8  and  C7_9
REMARK    5  A    between atoms: C10_12  and  C11_13
REMARK    6  A    between atoms: C12_14  and  C13_15
REMARK    7  A    between atoms: C13_15  and  C14_17
REMARK    8  A    between atoms: C14_17  and  C15_18
REMARK    9  A    between atoms: C14_17  and  C16_19
REMARK   10  A    between atoms: C16_19  and  C17_20
REMARK   11  A    between atoms: C16_19  and  C18_21
REMARK                            x       y       z     vdW  Elec       q    Type
REMARK                         _______ _______ _______ _____ _____    ______ ____
ROOT
ATOM      1  C7  UNL     1       2.275   1.820  19.737  0.00  0.00    +0.000 C 
ATOM      2  C8  UNL     1       2.630   2.772  18.585  0.00  0.00    +0.000 C 
ATOM      3  C9  UNL     1       1.660   2.373  17.486  0.00  0.00    +0.000 C 
ATOM      4  C10 UNL     1       0.339   2.132  18.219  0.00  0.00    +0.000 C 
ATOM      5  C11 UNL     1      -0.485   3.414  18.344  0.00  0.00    +0.000 C 
ATOM      6  C12 UNL     1       0.745   1.588  19.608  0.00  0.00    +0.000 C 
ENDROOT
BRANCH   1  11
ATOM      7  C1  UNL     1       3.717   4.039  24.889  0.00  0.00    +0.000 C 
ATOM      8  C2  UNL     1       3.358   3.420  23.571  0.00  0.00    +0.000 C 
ATOM      9  C3  UNL     1       3.319   2.043  23.432  0.00  0.00    +0.000 C 
ATOM     10  C4  UNL     1       2.969   1.498  22.193  0.00  0.00    +0.000 C 
ATOM     11  C6  UNL     1       2.691   2.331  21.101  0.00  0.00    +0.000 C 
ATOM     12  C19 UNL     1       2.757   3.700  21.356  0.00  0.00    +0.000 C 
ATOM     13  N2  UNL     1       3.077   4.254  22.548  0.00  0.00    +0.000 NA
BRANCH  10  14
ATOM     14  C5  UNL     1       2.963   0.026  22.062  0.00  0.00    +0.000 C 
ATOM     15  N1  UNL     1       2.056  -0.809  22.477  0.00  0.00    +0.000 NA
BRANCH  15  16
ATOM     16  O1  UNL     1       0.941  -0.170  23.024  0.00  0.00    +0.000 OA
ATOM     17  H   UNL     1       1.012   0.276  23.845  0.00  0.00    +0.000 HD
ENDBRANCH  15  16
ENDBRANCH  10  14
ENDBRANCH   1  11
BRANCH   6  18
ATOM     18  C13 UNL     1       0.380   0.105  19.687  0.00  0.00    +0.000 C 
ATOM     19  O2  UNL     1      -0.569  -0.289  20.368  0.00  0.00    +0.000 OA
BRANCH  18  20
ATOM     20  C14 UNL     1       1.291  -0.876  18.941  0.00  0.00    +0.000 C 
ATOM     21  C15 UNL     1       1.269  -2.229  19.655  0.00  0.00    +0.000 C 
BRANCH  20  22
ATOM     22  C16 UNL     1       0.955  -0.991  17.435  0.00  0.00    +0.000 C 
ATOM     23  C17 UNL     1      -0.117  -2.051  17.173  0.00  0.00    +0.000 C 
ATOM     24  C18 UNL     1       2.167  -1.248  16.536  0.00  0.00    +0.000 C 
ENDBRANCH  20  22
ENDBRANCH  18  20
ENDBRANCH   6  18
TORSDOF 6
ENDMDL
MODEL 2
REMARK VINA RESULT:    -6.676      1.838      2.936
REMARK INTER + INTRA:         -10.200
REMARK INTER:                  -8.774
REMARK INTRA:                  -1.426
REMARK UNBOUND:                -1.378
REMARK  Name = laboratorio_evolutivo\Gen6_Mutante_7.pdb
REMARK  11 active torsions:
REMARK  status: ('A' for Active; 'I' for Inactive)
REMARK    1  A    between atoms: C1_1  and  C2_2
REMARK    2  A    between atoms: C4_4  and  C5_5
REMARK    3  A    between atoms: N1_6  and  O1_7
REMARK    4  A    between atoms: C6_8  and  C7_9
REMARK    5  A    between atoms: C10_12  and  C11_13
REMARK    6  A    between atoms: C12_14  and  C13_15
REMARK    7  A    between atoms: C13_15  and  C14_17
REMARK    8  A    between atoms: C14_17  and  C15_18
REMARK    9  A    between atoms: C14_17  and  C16_19
REMARK   10  A    between atoms: C16_19  and  C17_20
REMARK   11  A    between atoms: C16_19  and  C18_21
REMARK                            x       y       z     vdW  Elec       q    Type
REMARK                         _______ _______ _______ _____ _____    ______ ____
ROOT
ATOM      1  C7  UNL     1       2.175   1.015  19.670  0.00  0.00    +0.000 C 
ATOM      2  C8  UNL     1       2.333   0.776  18.160  0.00  0.00    +0.000 C 
ATOM      3  C9  UNL     1       1.628  -0.551  17.938  0.00  0.00    +0.000 C 
ATOM      4  C10 UNL     1       0.378  -0.465  18.816  0.00  0.00    +0.000 C 
ATOM      5  C11 UNL     1      -0.798   0.172  18.072  0.00  0.00    +0.000 C 
ATOM      6  C12 UNL     1       0.801   0.390  20.033  0.00  0.00    +0.000 C 
ENDROOT
BRANCH   1  11
ATOM      7  C1  UNL     1       2.372   6.633  21.066  0.00  0.00    +0.000 C 
ATOM      8  C2  UNL     1       2.357   5.170  20.737  0.00  0.00    +0.000 C 
ATOM      9  C3  UNL     1       3.065   4.270  21.516  0.00  0.00    +0.000 C 
ATOM     10  C4  UNL     1       3.020   2.912  21.188  0.00  0.00    +0.000 C 
ATOM     11  C6  UNL     1       2.297   2.471  20.072  0.00  0.00    +0.000 C 
ATOM     12  C19 UNL     1       1.621   3.463  19.363  0.00  0.00    +0.000 C 
ATOM     13  N2  UNL     1       1.633   4.781  19.666  0.00  0.00    +0.000 NA
BRANCH  10  14
ATOM     14  C5  UNL     1       3.807   1.975  22.018  0.00  0.00    +0.000 C 
ATOM     15  N1  UNL     1       3.487   1.469  23.172  0.00  0.00    +0.000 NA
BRANCH  15  16
ATOM     16  O1  UNL     1       2.199   1.821  23.580  0.00  0.00    +0.000 OA
ATOM     17  H   UNL     1       1.479   1.245  23.409  0.00  0.00    +0.000 HD
ENDBRANCH  15  16
ENDBRANCH  10  14
ENDBRANCH   1  11
BRANCH   6  18
ATOM     18  C13 UNL     1       0.887  -0.510  21.267  0.00  0.00    +0.000 C 
ATOM     19  O2  UNL     1       0.554  -0.105  22.383  0.00  0.00    +0.000 OA
BRANCH  18  20
ATOM     20  C14 UNL     1       1.474  -1.910  21.065  0.00  0.00    +0.000 C 
ATOM     21  C15 UNL     1       2.532  -2.174  22.138  0.00  0.00    +0.000 C 
BRANCH  20  22
ATOM     22  C16 UNL     1       0.396  -3.018  21.005  0.00  0.00    +0.000 C 
ATOM     23  C17 UNL     1       0.426  -3.767  19.671  0.00  0.00    +0.000 C 
ATOM     24  C18 UNL     1      -1.027  -2.530  21.293  0.00  0.00    +0.000 C 
ENDBRANCH  20  22
ENDBRANCH  18  20
ENDBRANCH   6  18
TORSDOF 6
ENDMDL
MODEL 3
REMARK VINA RESULT:    -6.665      2.195      5.801
REMARK INTER + INTRA:         -10.186
REMARK INTER:                  -8.547
REMARK INTRA:                  -1.639
REMARK UNBOUND:                -1.378
REMARK  Name = laboratorio_evolutivo\Gen6_Mutante_7.pdb
REMARK  11 active torsions:
REMARK  status: ('A' for Active; 'I' for Inactive)
REMARK    1  A    between atoms: C1_1  and  C2_2
REMARK    2  A    between atoms: C4_4  and  C5_5
REMARK    3  A    between atoms: N1_6  and  O1_7
REMARK    4  A    between atoms: C6_8  and  C7_9
REMARK    5  A    between atoms: C10_12  and  C11_13
REMARK    6  A    between atoms: C12_14  and  C13_15
REMARK    7  A    between atoms: C13_15  and  C14_17
REMARK    8  A    between atoms: C14_17  and  C15_18
REMARK    9  A    between atoms: C14_17  and  C16_19
REMARK   10  A    between atoms: C16_19  and  C17_20
REMARK   11  A    between atoms: C16_19  and  C18_21
REMARK                            x       y       z     vdW  Elec       q    Type
REMARK                         _______ _______ _______ _____ _____    ______ ____
ROOT
ATOM      1  C7  UNL     1       0.586   0.123  19.806  0.00  0.00    +0.000 C 
ATOM      2  C8  UNL     1      -0.470   1.008  19.126  0.00  0.00    +0.000 C 
ATOM      3  C9  UNL     1      -0.457   2.277  19.961  0.00  0.00    +0.000 C 
ATOM      4  C10 UNL     1       1.026   2.523  20.249  0.00  0.00    +0.000 C 
ATOM      5  C11 UNL     1       1.688   3.357  19.151  0.00  0.00    +0.000 C 
ATOM      6  C12 UNL     1       1.655   1.114  20.341  0.00  0.00    +0.000 C 
ENDROOT
BRANCH   1  11
ATOM      7  C1  UNL     1       2.981  -3.757  16.234  0.00  0.00    +0.000 C 
ATOM      8  C2  UNL     1       2.338  -2.789  17.182  0.00  0.00    +0.000 C 
ATOM      9  C3  UNL     1       1.676  -3.248  18.309  0.00  0.00    +0.000 C 
ATOM     10  C4  UNL     1       1.097  -2.319  19.178  0.00  0.00    +0.000 C 
ATOM     11  C6  UNL     1       1.160  -0.946  18.900  0.00  0.00    +0.000 C 
ATOM     12  C19 UNL     1       1.854  -0.599  17.742  0.00  0.00    +0.000 C 
ATOM     13  N2  UNL     1       2.437  -1.475  16.892  0.00  0.00    +0.000 NA
BRANCH  10  14
ATOM     14  C5  UNL     1       0.372  -2.835  20.358  0.00  0.00    +0.000 C 
ATOM     15  N1  UNL     1       0.849  -3.093  21.539  0.00  0.00    +0.000 NA
BRANCH  15  16
ATOM     16  O1  UNL     1       2.193  -2.738  21.670  0.00  0.00    +0.000 OA
ATOM     17  H   UNL     1       2.669  -2.419  20.928  0.00  0.00    +0.000 HD
ENDBRANCH  15  16
ENDBRANCH  10  14
ENDBRANCH   1  11
BRANCH   6  18
ATOM     18  C13 UNL     1       2.026   0.830  21.797  0.00  0.00    +0.000 C 
ATOM     19  O2  UNL     1       1.317   0.122  22.515  0.00  0.00    +0.000 OA
BRANCH  18  20
ATOM     20  C14 UNL     1       3.278   1.525  22.343  0.00  0.00    +0.000 C 
ATOM     21  C15 UNL     1       4.211   1.870  21.181  0.00  0.00    +0.000 C 
BRANCH  20  22
ATOM     22  C16 UNL     1       2.954   2.749  23.231  0.00  0.00    +0.000 C 
ATOM     23  C17 UNL     1       3.668   4.010  22.741  0.00  0.00    +0.000 C 
ATOM     24  C18 UNL     1       3.237   2.540  24.721  0.00  0.00    +0.000 C 
ENDBRANCH  20  22
ENDBRANCH  18  20
ENDBRANCH   6  18
TORSDOF 6
ENDMDL
MODEL 4
REMARK VINA RESULT:    -6.645      2.282      3.839
REMARK INTER + INTRA:         -10.160
REMARK INTER:                  -8.355
REMARK INTRA:                  -1.805
REMARK UNBOUND:                -1.378
REMARK  Name = laboratorio_evolutivo\Gen6_Mutante_7.pdb
REMARK  11 active torsions:
REMARK  status: ('A' for Active; 'I' for Inactive)
REMARK    1  A    between atoms: C1_1  and  C2_2
REMARK    2  A    between atoms: C4_4  and  C5_5
REMARK    3  A    between atoms: N1_6  and  O1_7
REMARK    4  A    between atoms: C6_8  and  C7_9
REMARK    5  A    between atoms: C10_12  and  C11_13
REMARK    6  A    between atoms: C12_14  and  C13_15
REMARK    7  A    between atoms: C13_15  and  C14_17
REMARK    8  A    between atoms: C14_17  and  C15_18
REMARK    9  A    between atoms: C14_17  and  C16_19
REMARK   10  A    between atoms: C16_19  and  C17_20
REMARK   11  A    between atoms: C16_19  and  C18_21
REMARK                            x       y       z     vdW  Elec       q    Type
REMARK                         _______ _______ _______ _____ _____    ______ ____
ROOT
ATOM      1  C7  UNL     1       0.595   0.287  19.996  0.00  0.00    +0.000 C 
ATOM      2  C8  UNL     1      -0.734  -0.106  20.660  0.00  0.00    +0.000 C 
ATOM      3  C9  UNL     1      -1.112  -1.397  19.954  0.00  0.00    +0.000 C 
ATOM      4  C10 UNL     1       0.209  -2.157  19.826  0.00  0.00    +0.000 C 
ATOM      5  C11 UNL     1       0.488  -3.026  21.054  0.00  0.00    +0.000 C 
ATOM      6  C12 UNL     1       1.287  -1.062  19.657  0.00  0.00    +0.000 C 
ENDROOT
BRANCH   1  11
ATOM      7  C1  UNL     1       4.004   3.542  23.362  0.00  0.00    +0.000 C 
ATOM      8  C2  UNL     1       3.111   2.739  22.465  0.00  0.00    +0.000 C 
ATOM      9  C3  UNL     1       2.608   3.294  21.299  0.00  0.00    +0.000 C 
ATOM     10  C4  UNL     1       1.787   2.514  20.480  0.00  0.00    +0.000 C 
ATOM     11  C6  UNL     1       1.452   1.203  20.845  0.00  0.00    +0.000 C 
ATOM     12  C19 UNL     1       2.017   0.748  22.035  0.00  0.00    +0.000 C 
ATOM     13  N2  UNL     1       2.827   1.474  22.839  0.00  0.00    +0.000 NA
BRANCH  10  14
ATOM     14  C5  UNL     1       1.241   3.139  19.256  0.00  0.00    +0.000 C 
ATOM     15  N1  UNL     1       1.814   3.257  18.095  0.00  0.00    +0.000 NA
BRANCH  15  16
ATOM     16  O1  UNL     1       3.056   2.622  18.037  0.00  0.00    +0.000 OA
ATOM     17  H   UNL     1       3.120   1.700  18.197  0.00  0.00    +0.000 HD
ENDBRANCH  15  16
ENDBRANCH  10  14
ENDBRANCH   1  11
BRANCH   6  18
ATOM     18  C13 UNL     1       1.808  -1.095  18.219  0.00  0.00    +0.000 C 
ATOM     19  O2  UNL     1       2.383  -0.125  17.721  0.00  0.00    +0.000 OA
BRANCH  18  20
ATOM     20  C14 UNL     1       1.517  -2.359  17.404  0.00  0.00    +0.000 C 
ATOM     21  C15 UNL     1       0.832  -1.969  16.093  0.00  0.00    +0.000 C 
BRANCH  20  22
ATOM     22  C16 UNL     1       2.768  -3.240  17.183  0.00  0.00    +0.000 C 
ATOM     23  C17 UNL     1       2.661  -4.066  15.900  0.00  0.00    +0.000 C 
ATOM     24  C18 UNL     1       3.111  -4.157  18.361  0.00  0.00    +0.000 C 
ENDBRANCH  20  22
ENDBRANCH  18  20
ENDBRANCH   6  18
TORSDOF 6
ENDMDL
MODEL 5
REMARK VINA RESULT:    -6.622     25.289     26.811
REMARK INTER + INTRA:         -10.129
REMARK INTER:                  -8.401
REMARK INTRA:                  -1.728
REMARK UNBOUND:                -1.378
REMARK  Name = laboratorio_evolutivo\Gen6_Mutante_7.pdb
REMARK  11 active torsions:
REMARK  status: ('A' for Active; 'I' for Inactive)
REMARK    1  A    between atoms: C1_1  and  C2_2
REMARK    2  A    between atoms: C4_4  and  C5_5
REMARK    3  A    between atoms: N1_6  and  O1_7
REMARK    4  A    between atoms: C6_8  and  C7_9
REMARK    5  A    between atoms: C10_12  and  C11_13
REMARK    6  A    between atoms: C12_14  and  C13_15
REMARK    7  A    between atoms: C13_15  and  C14_17
REMARK    8  A    between atoms: C14_17  and  C15_18
REMARK    9  A    between atoms: C14_17  and  C16_19
REMARK   10  A    between atoms: C16_19  and  C17_20
REMARK   11  A    between atoms: C16_19  and  C18_21
REMARK                            x       y       z     vdW  Elec       q    Type
REMARK                         _______ _______ _______ _____ _____    ______ ____
ROOT
ATOM      1  C7  UNL     1      17.833  -8.388   2.865  0.00  0.00    +0.000 C 
ATOM      2  C8  UNL     1      16.758  -9.068   3.726  0.00  0.00    +0.000 C 
ATOM      3  C9  UNL     1      15.527  -9.046   2.836  0.00  0.00    +0.000 C 
ATOM      4  C10 UNL     1      16.063  -9.386   1.444  0.00  0.00    +0.000 C 
ATOM      5  C11 UNL     1      16.091 -10.896   1.199  0.00  0.00    +0.000 C 
ATOM      6  C12 UNL     1      17.486  -8.784   1.404  0.00  0.00    +0.000 C 
ENDROOT
BRANCH   1  11
ATOM      7  C1  UNL     1      23.188 -10.052   4.315  0.00  0.00    +0.000 C 
ATOM      8  C2  UNL     1      21.817  -9.575   3.941  0.00  0.00    +0.000 C 
ATOM      9  C3  UNL     1      21.611  -8.254   3.578  0.00  0.00    +0.000 C 
ATOM     10  C4  UNL     1      20.322  -7.844   3.223  0.00  0.00    +0.000 C 
ATOM     11  C6  UNL     1      19.250  -8.747   3.263  0.00  0.00    +0.000 C 
ATOM     12  C19 UNL     1      19.574 -10.049   3.639  0.00  0.00    +0.000 C 
ATOM     13  N2  UNL     1      20.814 -10.477   3.971  0.00  0.00    +0.000 NA
BRANCH  10  14
ATOM     14  C5  UNL     1      20.123  -6.424   2.867  0.00  0.00    +0.000 C 
ATOM     15  N1  UNL     1      20.377  -5.841   1.733  0.00  0.00    +0.000 NA
BRANCH  15  16
ATOM     16  O1  UNL     1      20.805  -6.734   0.749  0.00  0.00    +0.000 OA
ATOM     17  H   UNL     1      21.271  -7.511   0.991  0.00  0.00    +0.000 HD
ENDBRANCH  15  16
ENDBRANCH  10  14
ENDBRANCH   1  11
BRANCH   6  18
ATOM     18  C13 UNL     1      17.489  -7.577   0.464  0.00  0.00    +0.000 C 
ATOM     19  O2  UNL     1      18.351  -7.442  -0.407  0.00  0.00    +0.000 OA
BRANCH  18  20
ATOM     20  C14 UNL     1      16.417  -6.509   0.703  0.00  0.00    +0.000 C 
ATOM     21  C15 UNL     1      17.095  -5.177   1.029  0.00  0.00    +0.000 C 
BRANCH  20  22
ATOM     22  C16 UNL     1      15.406  -6.394  -0.461  0.00  0.00    +0.000 C 
ATOM     23  C17 UNL     1      15.751  -5.236  -1.399  0.00  0.00    +0.000 C 
ATOM     24  C18 UNL     1      13.944  -6.283  -0.019  0.00  0.00    +0.000 C 
ENDBRANCH  20  22
ENDBRANCH  18  20
ENDBRANCH   6  18
TORSDOF 6
ENDMDL
MODEL 6
REMARK VINA RESULT:    -6.590     24.689     26.626
REMARK INTER + INTRA:         -10.087
REMARK INTER:                  -8.584
REMARK INTRA:                  -1.502
REMARK UNBOUND:                -1.378
REMARK  Name = laboratorio_evolutivo\Gen6_Mutante_7.pdb
REMARK  11 active torsions:
REMARK  status: ('A' for Active; 'I' for Inactive)
REMARK    1  A    between atoms: C1_1  and  C2_2
REMARK    2  A    between atoms: C4_4  and  C5_5
REMARK    3  A    between atoms: N1_6  and  O1_7
REMARK    4  A    between atoms: C6_8  and  C7_9
REMARK    5  A    between atoms: C10_12  and  C11_13
REMARK    6  A    between atoms: C12_14  and  C13_15
REMARK    7  A    between atoms: C13_15  and  C14_17
REMARK    8  A    between atoms: C14_17  and  C15_18
REMARK    9  A    between atoms: C14_17  and  C16_19
REMARK   10  A    between atoms: C16_19  and  C17_20
REMARK   11  A    between atoms: C16_19  and  C18_21
REMARK                            x       y       z     vdW  Elec       q    Type
REMARK                         _______ _______ _______ _____ _____    ______ ____
ROOT
ATOM      1  C7  UNL     1      17.546  -8.425   2.994  0.00  0.00    +0.000 C 
ATOM      2  C8  UNL     1      16.079  -8.552   3.431  0.00  0.00    +0.000 C 
ATOM      3  C9  UNL     1      15.354  -7.569   2.527  0.00  0.00    +0.000 C 
ATOM      4  C10 UNL     1      16.014  -7.759   1.160  0.00  0.00    +0.000 C 
ATOM      5  C11 UNL     1      15.331  -8.859   0.346  0.00  0.00    +0.000 C 
ATOM      6  C12 UNL     1      17.484  -8.122   1.472  0.00  0.00    +0.000 C 
ENDROOT
BRANCH   1  11
ATOM      7  C1  UNL     1      20.613 -13.219   4.067  0.00  0.00    +0.000 C 
ATOM      8  C2  UNL     1      19.852 -11.953   3.814  0.00  0.00    +0.000 C 
ATOM      9  C3  UNL     1      20.417 -10.725   4.117  0.00  0.00    +0.000 C 
ATOM     10  C4  UNL     1      19.685  -9.562   3.858  0.00  0.00    +0.000 C 
ATOM     11  C6  UNL     1      18.389  -9.638   3.329  0.00  0.00    +0.000 C 
ATOM     12  C19 UNL     1      17.923 -10.924   3.061  0.00  0.00    +0.000 C 
ATOM     13  N2  UNL     1      18.615 -12.064   3.286  0.00  0.00    +0.000 NA
BRANCH  10  14
ATOM     14  C5  UNL     1      20.298  -8.266   4.216  0.00  0.00    +0.000 C 
ATOM     15  N1  UNL     1      21.122  -7.550   3.509  0.00  0.00    +0.000 NA
BRANCH  15  16
ATOM     16  O1  UNL     1      21.346  -8.079   2.237  0.00  0.00    +0.000 OA
ATOM     17  H   UNL     1      21.046  -7.617   1.478  0.00  0.00    +0.000 HD
ENDBRANCH  15  16
ENDBRANCH  10  14
ENDBRANCH   1  11
BRANCH   6  18
ATOM     18  C13 UNL     1      18.380  -6.944   1.083  0.00  0.00    +0.000 C 
ATOM     19  O2  UNL     1      19.199  -7.034   0.167  0.00  0.00    +0.000 OA
BRANCH  18  20
ATOM     20  C14 UNL     1      18.264  -5.674   1.933  0.00  0.00    +0.000 C 
ATOM     21  C15 UNL     1      19.597  -4.924   1.904  0.00  0.00    +0.000 C 
BRANCH  20  22
ATOM     22  C16 UNL     1      17.068  -4.781   1.529  0.00  0.00    +0.000 C 
ATOM     23  C17 UNL     1      17.211  -4.254   0.099  0.00  0.00    +0.000 C 
ATOM     24  C18 UNL     1      16.800  -3.615   2.485  0.00  0.00    +0.000 C 
ENDBRANCH  20  22
ENDBRANCH  18  20
ENDBRANCH   6  18
TORSDOF 6
ENDMDL
MODEL 7
REMARK VINA RESULT:    -6.570     25.023     27.817
REMARK INTER + INTRA:         -10.060
REMARK INTER:                  -8.374
REMARK INTRA:                  -1.686
REMARK UNBOUND:                -1.378
REMARK  Name = laboratorio_evolutivo\Gen6_Mutante_7.pdb
REMARK  11 active torsions:
REMARK  status: ('A' for Active; 'I' for Inactive)
REMARK    1  A    between atoms: C1_1  and  C2_2
REMARK    2  A    between atoms: C4_4  and  C5_5
REMARK    3  A    between atoms: N1_6  and  O1_7
REMARK    4  A    between atoms: C6_8  and  C7_9
REMARK    5  A    between atoms: C10_12  and  C11_13
REMARK    6  A    between atoms: C12_14  and  C13_15
REMARK    7  A    between atoms: C13_15  and  C14_17
REMARK    8  A    between atoms: C14_17  and  C15_18
REMARK    9  A    between atoms: C14_17  and  C16_19
REMARK   10  A    between atoms: C16_19  and  C17_20
REMARK   11  A    between atoms: C16_19  and  C18_21
REMARK                            x       y       z     vdW  Elec       q    Type
REMARK                         _______ _______ _______ _____ _____    ______ ____
ROOT
ATOM      1  C7  UNL     1      17.728 -10.255   2.710  0.00  0.00    +0.000 C 
ATOM      2  C8  UNL     1      16.251 -10.367   3.115  0.00  0.00    +0.000 C 
ATOM      3  C9  UNL     1      15.855  -8.929   3.409  0.00  0.00    +0.000 C 
ATOM      4  C10 UNL     1      16.536  -8.119   2.304  0.00  0.00    +0.000 C 
ATOM      5  C11 UNL     1      15.655  -8.002   1.059  0.00  0.00    +0.000 C 
ATOM      6  C12 UNL     1      17.845  -8.881   1.996  0.00  0.00    +0.000 C 
ENDROOT
BRANCH   1  11
ATOM      7  C1  UNL     1      19.504 -14.533  -0.766  0.00  0.00    +0.000 C 
ATOM      8  C2  UNL     1      19.071 -13.445   0.170  0.00  0.00    +0.000 C 
ATOM      9  C3  UNL     1      19.674 -13.306   1.409  0.00  0.00    +0.000 C 
ATOM     10  C4  UNL     1      19.254 -12.275   2.253  0.00  0.00    +0.000 C 
ATOM     11  C6  UNL     1      18.218 -11.413   1.866  0.00  0.00    +0.000 C 
ATOM     12  C19 UNL     1      17.687 -11.643   0.598  0.00  0.00    +0.000 C 
ATOM     13  N2  UNL     1      18.084 -12.623  -0.245  0.00  0.00    +0.000 NA
BRANCH  10  14
ATOM     14  C5  UNL     1      19.894 -12.165   3.581  0.00  0.00    +0.000 C 
ATOM     15  N1  UNL     1      20.929 -11.451   3.912  0.00  0.00    +0.000 NA
BRANCH  15  16
ATOM     16  O1  UNL     1      21.391 -10.648   2.867  0.00  0.00    +0.000 OA
ATOM     17  H   UNL     1      21.054  -9.780   2.759  0.00  0.00    +0.000 HD
ENDBRANCH  15  16
ENDBRANCH  10  14
ENDBRANCH   1  11
BRANCH   6  18
ATOM     18  C13 UNL     1      19.030  -8.063   2.512  0.00  0.00    +0.000 C 
ATOM     19  O2  UNL     1      19.525  -8.276   3.621  0.00  0.00    +0.000 OA
BRANCH  18  20
ATOM     20  C14 UNL     1      19.524  -6.919   1.621  0.00  0.00    +0.000 C 
ATOM     21  C15 UNL     1      19.046  -7.153   0.187  0.00  0.00    +0.000 C 
BRANCH  20  22
ATOM     22  C16 UNL     1      19.136  -5.521   2.157  0.00  0.00    +0.000 C 
ATOM     23  C17 UNL     1      17.951  -4.928   1.392  0.00  0.00    +0.000 C 
ATOM     24  C18 UNL     1      20.289  -4.513   2.186  0.00  0.00    +0.000 C 
ENDBRANCH  20  22
ENDBRANCH  18  20
ENDBRANCH   6  18
TORSDOF 6
ENDMDL
MODEL 8
REMARK VINA RESULT:    -6.559     24.462     27.060
REMARK INTER + INTRA:         -10.046
REMARK INTER:                  -8.408
REMARK INTRA:                  -1.638
REMARK UNBOUND:                -1.378
REMARK  Name = laboratorio_evolutivo\Gen6_Mutante_7.pdb
REMARK  11 active torsions:
REMARK  status: ('A' for Active; 'I' for Inactive)
REMARK    1  A    between atoms: C1_1  and  C2_2
REMARK    2  A    between atoms: C4_4  and  C5_5
REMARK    3  A    between atoms: N1_6  and  O1_7
REMARK    4  A    between atoms: C6_8  and  C7_9
REMARK    5  A    between atoms: C10_12  and  C11_13
REMARK    6  A    between atoms: C12_14  and  C13_15
REMARK    7  A    between atoms: C13_15  and  C14_17
REMARK    8  A    between atoms: C14_17  and  C15_18
REMARK    9  A    between atoms: C14_17  and  C16_19
REMARK   10  A    between atoms: C16_19  and  C17_20
REMARK   11  A    between atoms: C16_19  and  C18_21
REMARK                            x       y       z     vdW  Elec       q    Type
REMARK                         _______ _______ _______ _____ _____    ______ ____
ROOT
ATOM      1  C7  UNL     1      21.901  20.076  17.693  0.00  0.00    +0.000 C 
ATOM      2  C8  UNL     1      23.168  20.136  16.826  0.00  0.00    +0.000 C 
ATOM      3  C9  UNL     1      24.280  20.344  17.840  0.00  0.00    +0.000 C 
ATOM      4  C10 UNL     1      23.903  19.427  19.006  0.00  0.00    +0.000 C 
ATOM      5  C11 UNL     1      24.466  18.016  18.826  0.00  0.00    +0.000 C 
ATOM      6  C12 UNL     1      22.357  19.417  19.023  0.00  0.00    +0.000 C 
ENDROOT
BRANCH   1  11
ATOM      7  C1  UNL     1      17.556  17.069  15.324  0.00  0.00    +0.000 C 
ATOM      8  C2  UNL     1      18.660  17.889  15.921  0.00  0.00    +0.000 C 
ATOM      9  C3  UNL     1      18.549  19.267  15.989  0.00  0.00    +0.000 C 
ATOM     10  C4  UNL     1      19.592  20.001  16.562  0.00  0.00    +0.000 C 
ATOM     11  C6  UNL     1      20.744  19.356  17.033  0.00  0.00    +0.000 C 
ATOM     12  C19 UNL     1      20.744  17.967  16.917  0.00  0.00    +0.000 C 
ATOM     13  N2  UNL     1      19.744  17.231  16.382  0.00  0.00    +0.000 NA
BRANCH  10  14
ATOM     14  C5  UNL     1      19.463  21.473  16.597  0.00  0.00    +0.000 C 
ATOM     15  N1  UNL     1      18.844  22.200  17.480  0.00  0.00    +0.000 NA
BRANCH  15  16
ATOM     16  O1  UNL     1      18.337  21.448  18.542  0.00  0.00    +0.000 OA
ATOM     17  H   UNL     1      18.687  21.560  19.405  0.00  0.00    +0.000 HD
ENDBRANCH  15  16
ENDBRANCH  10  14
ENDBRANCH   1  11
BRANCH   6  18
ATOM     18  C13 UNL     1      21.869  20.193  20.248  0.00  0.00    +0.000 C 
ATOM     19  O2  UNL     1      22.093  21.399  20.376  0.00  0.00    +0.000 OA
BRANCH  18  20
ATOM     20  C14 UNL     1      21.156  19.390  21.340  0.00  0.00    +0.000 C 
ATOM     21  C15 UNL     1      19.691  19.826  21.413  0.00  0.00    +0.000 C 
BRANCH  20  22
ATOM     22  C16 UNL     1      21.314  17.861  21.170  0.00  0.00    +0.000 C 
ATOM     23  C17 UNL     1      19.970  17.137  21.267  0.00  0.00    +0.000 C 
ATOM     24  C18 UNL     1      22.318  17.220  22.133  0.00  0.00    +0.000 C 
ENDBRANCH  20  22
ENDBRANCH  18  20
ENDBRANCH   6  18
TORSDOF 6
ENDMDL
MODEL 9
REMARK VINA RESULT:    -6.485     22.128     25.012
REMARK INTER + INTRA:          -9.949
REMARK INTER:                  -8.153
REMARK INTRA:                  -1.795
REMARK UNBOUND:                -1.378
REMARK  Name = laboratorio_evolutivo\Gen6_Mutante_7.pdb
REMARK  11 active torsions:
REMARK  status: ('A' for Active; 'I' for Inactive)
REMARK    1  A    between atoms: C1_1  and  C2_2
REMARK    2  A    between atoms: C4_4  and  C5_5
REMARK    3  A    between atoms: N1_6  and  O1_7
REMARK    4  A    between atoms: C6_8  and  C7_9
REMARK    5  A    between atoms: C10_12  and  C11_13
REMARK    6  A    between atoms: C12_14  and  C13_15
REMARK    7  A    between atoms: C13_15  and  C14_17
REMARK    8  A    between atoms: C14_17  and  C15_18
REMARK    9  A    between atoms: C14_17  and  C16_19
REMARK   10  A    between atoms: C16_19  and  C17_20
REMARK   11  A    between atoms: C16_19  and  C18_21
REMARK                            x       y       z     vdW  Elec       q    Type
REMARK                         _______ _______ _______ _____ _____    ______ ____
ROOT
ATOM      1  C7  UNL     1      16.661  -6.631   1.360  0.00  0.00    +0.000 C 
ATOM      2  C8  UNL     1      16.496  -6.865  -0.150  0.00  0.00    +0.000 C 
ATOM      3  C9  UNL     1      15.465  -5.825  -0.557  0.00  0.00    +0.000 C 
ATOM      4  C10 UNL     1      15.862  -4.574   0.228  0.00  0.00    +0.000 C 
ATOM      5  C11 UNL     1      16.877  -3.721  -0.534  0.00  0.00    +0.000 C 
ATOM      6  C12 UNL     1      16.457  -5.104   1.553  0.00  0.00    +0.000 C 
ENDROOT
BRANCH   1  11
ATOM      7  C1  UNL     1      21.761  -8.269   3.562  0.00  0.00    +0.000 C 
ATOM      8  C2  UNL     1      20.428  -7.892   2.990  0.00  0.00    +0.000 C 
ATOM      9  C3  UNL     1      19.418  -8.835   2.889  0.00  0.00    +0.000 C 
ATOM     10  C4  UNL     1      18.183  -8.447   2.361  0.00  0.00    +0.000 C 
ATOM     11  C6  UNL     1      17.978  -7.135   1.914  0.00  0.00    +0.000 C 
ATOM     12  C19 UNL     1      19.061  -6.271   2.068  0.00  0.00    +0.000 C 
ATOM     13  N2  UNL     1      20.261  -6.614   2.589  0.00  0.00    +0.000 NA
BRANCH  10  14
ATOM     14  C5  UNL     1      17.131  -9.478   2.237  0.00  0.00    +0.000 C 
ATOM     15  N1  UNL     1      16.240  -9.821   3.120  0.00  0.00    +0.000 NA
BRANCH  15  16
ATOM     16  O1  UNL     1      16.279  -9.024   4.267  0.00  0.00    +0.000 OA
ATOM     17  H   UNL     1      16.963  -9.142   4.897  0.00  0.00    +0.000 HD
ENDBRANCH  15  16
ENDBRANCH  10  14
ENDBRANCH   1  11
BRANCH   6  18
ATOM     18  C13 UNL     1      15.486  -4.793   2.693  0.00  0.00    +0.000 C 
ATOM     19  O2  UNL     1      15.460  -3.685   3.233  0.00  0.00    +0.000 OA
BRANCH  18  20
ATOM     20  C14 UNL     1      14.600  -5.944   3.183  0.00  0.00    +0.000 C 
ATOM     21  C15 UNL     1      14.620  -5.981   4.712  0.00  0.00    +0.000 C 
BRANCH  20  22
ATOM     22  C16 UNL     1      13.165  -5.892   2.607  0.00  0.00    +0.000 C 
ATOM     23  C17 UNL     1      12.122  -5.662   3.703  0.00  0.00    +0.000 C 
ATOM     24  C18 UNL     1      12.776  -7.115   1.772  0.00  0.00    +0.000 C 
ENDBRANCH  20  22
ENDBRANCH  18  20
ENDBRANCH   6  18
TORSDOF 6
ENDMDL
