MODEL 1
REMARK VINA RESULT:    -8.950      0.000      0.000
REMARK INTER + INTRA:         -13.124
REMARK INTER:                 -12.350
REMARK INTRA:                  -0.774
REMARK UNBOUND:                -0.774
REMARK  Name = laboratorio_evolutivo\Gen6_Mutante_4.pdb
REMARK  11 active torsions:
REMARK  status: ('A' for Active; 'I' for Inactive)
REMARK    1  A    between atoms: C1_1  and  C2_2
REMARK    2  A    between atoms: C2_2  and  C3_3
REMARK    3  A    between atoms: C5_5  and  C6_6
REMARK    4  A    between atoms: N1_7  and  O1_8
REMARK    5  A    between atoms: C7_9  and  C8_10
REMARK    6  A    between atoms: C11_13  and  C12_14
REMARK    7  A    between atoms: C13_15  and  C14_16
REMARK    8  A    between atoms: C14_16  and  C15_18
REMARK    9  A    between atoms: C15_18  and  C16_19
REMARK   10  A    between atoms: C16_19  and  C17_20
REMARK   11  A    between atoms: C16_19  and  C18_21
REMARK                            x       y       z     vdW  Elec       q    Type
REMARK                         _______ _______ _______ _____ _____    ______ ____
ROOT
ATOM      1  C3  UNL     1       0.882  68.470  62.847  0.00  0.00    +0.000 C 
ATOM      2  C4  UNL     1       2.205  68.868  62.735  0.00  0.00    +0.000 C 
ATOM      3  C5  UNL     1       3.106  68.507  63.741  0.00  0.00    +0.000 C 
ATOM      4  C7  UNL     1       2.686  67.741  64.835  0.00  0.00    +0.000 C 
ATOM      5  C19 UNL     1       1.331  67.410  64.852  0.00  0.00    +0.000 C 
ATOM      6  N2  UNL     1       0.436  67.747  63.897  0.00  0.00    +0.000 NA
ENDROOT
BRANCH   4   7
ATOM      7  C8  UNL     1       3.602  67.309  65.962  0.00  0.00    +0.000 C 
ATOM      8  C9  UNL     1       3.592  68.288  67.158  0.00  0.00    +0.000 C 
ATOM      9  C10 UNL     1       3.218  67.457  68.384  0.00  0.00    +0.000 C 
ATOM     10  C11 UNL     1       3.642  66.029  68.040  0.00  0.00    +0.000 C 
ATOM     11  C12 UNL     1       5.136  65.815  68.296  0.00  0.00    +0.000 C 
ATOM     12  C13 UNL     1       3.225  65.932  66.565  0.00  0.00    +0.000 C 
BRANCH  12  13
ATOM     13  C14 UNL     1       3.835  64.741  65.831  0.00  0.00    +0.000 C 
ATOM     14  O2  UNL     1       3.577  63.582  66.151  0.00  0.00    +0.000 OA
BRANCH  13  15
ATOM     15  C15 UNL     1       4.752  65.073  64.659  0.00  0.00    +0.000 C 
BRANCH  15  16
ATOM     16  C16 UNL     1       4.282  64.475  63.326  0.00  0.00    +0.000 C 
ATOM     17  C17 UNL     1       4.509  65.477  62.192  0.00  0.00    +0.000 C 
ATOM     18  C18 UNL     1       5.011  63.166  63.012  0.00  0.00    +0.000 C 
ENDBRANCH  15  16
ENDBRANCH  13  15
ENDBRANCH  12  13
ENDBRANCH   4   7
BRANCH   1  20
ATOM     19  C1  UNL     1       0.522  69.600  60.643  0.00  0.00    +0.000 C 
ATOM     20  C2  UNL     1      -0.129  68.861  61.802  0.00  0.00    +0.000 C 
ENDBRANCH   1  20
BRANCH   3  21
ATOM     21  C6  UNL     1       4.518  68.914  63.578  0.00  0.00    +0.000 C 
ATOM     22  N1  UNL     1       5.191  69.031  62.469  0.00  0.00    +0.000 NA
BRANCH  22  23
ATOM     23  O1  UNL     1       4.404  68.797  61.338  0.00  0.00    +0.000 OA
ATOM     24  H   UNL     1       4.095  67.931  61.153  0.00  0.00    +0.000 HD
ENDBRANCH  22  23
ENDBRANCH   3  21
TORSDOF 7
ENDMDL
MODEL 2
REMARK VINA RESULT:    -8.829      2.507      5.490
REMARK INTER + INTRA:         -12.958
REMARK INTER:                 -11.703
REMARK INTRA:                  -1.255
REMARK UNBOUND:                -0.774
REMARK  Name = laboratorio_evolutivo\Gen6_Mutante_4.pdb
REMARK  11 active torsions:
REMARK  status: ('A' for Active; 'I' for Inactive)
REMARK    1  A    between atoms: C1_1  and  C2_2
REMARK    2  A    between atoms: C2_2  and  C3_3
REMARK    3  A    between atoms: C5_5  and  C6_6
REMARK    4  A    between atoms: N1_7  and  O1_8
REMARK    5  A    between atoms: C7_9  and  C8_10
REMARK    6  A    between atoms: C11_13  and  C12_14
REMARK    7  A    between atoms: C13_15  and  C14_16
REMARK    8  A    between atoms: C14_16  and  C15_18
REMARK    9  A    between atoms: C15_18  and  C16_19
REMARK   10  A    between atoms: C16_19  and  C17_20
REMARK   11  A    between atoms: C16_19  and  C18_21
REMARK                            x       y       z     vdW  Elec       q    Type
REMARK                         _______ _______ _______ _____ _____    ______ ____
ROOT
ATOM      1  C3  UNL     1       4.754  65.679  68.502  0.00  0.00    +0.000 C 
ATOM      2  C4  UNL     1       3.646  66.509  68.434  0.00  0.00    +0.000 C 
ATOM      3  C5  UNL     1       3.432  67.257  67.273  0.00  0.00    +0.000 C 
ATOM      4  C7  UNL     1       4.310  67.157  66.186  0.00  0.00    +0.000 C 
ATOM      5  C19 UNL     1       5.398  66.303  66.370  0.00  0.00    +0.000 C 
ATOM      6  N2  UNL     1       5.633  65.571  67.482  0.00  0.00    +0.000 NA
ENDROOT
BRANCH   4   7
ATOM      7  C8  UNL     1       4.144  67.931  64.895  0.00  0.00    +0.000 C 
ATOM      8  C9  UNL     1       4.843  69.310  64.923  0.00  0.00    +0.000 C 
ATOM      9  C10 UNL     1       5.795  69.329  63.730  0.00  0.00    +0.000 C 
ATOM     10  C11 UNL     1       5.200  68.335  62.732  0.00  0.00    +0.000 C 
ATOM     11  C12 UNL     1       4.083  68.977  61.906  0.00  0.00    +0.000 C 
ATOM     12  C13 UNL     1       4.739  67.204  63.663  0.00  0.00    +0.000 C 
BRANCH  12  13
ATOM     13  C14 UNL     1       3.784  66.215  63.001  0.00  0.00    +0.000 C 
ATOM     14  O2  UNL     1       2.566  66.391  63.004  0.00  0.00    +0.000 OA
BRANCH  13  15
ATOM     15  C15 UNL     1       4.428  65.019  62.309  0.00  0.00    +0.000 C 
BRANCH  15  16
ATOM     16  C16 UNL     1       4.881  63.920  63.281  0.00  0.00    +0.000 C 
ATOM     17  C17 UNL     1       3.771  63.624  64.291  0.00  0.00    +0.000 C 
ATOM     18  C18 UNL     1       5.259  62.637  62.536  0.00  0.00    +0.000 C 
ENDBRANCH  15  16
ENDBRANCH  13  15
ENDBRANCH  12  13
ENDBRANCH   4   7
BRANCH   1  20
ATOM     19  C1  UNL     1       4.425  63.489  69.667  0.00  0.00    +0.000 C 
ATOM     20  C2  UNL     1       5.039  64.879  69.744  0.00  0.00    +0.000 C 
ENDBRANCH   1  20
BRANCH   3  21
ATOM     21  C6  UNL     1       2.223  68.107  67.214  0.00  0.00    +0.000 C 
ATOM     22  N1  UNL     1       1.129  67.892  66.542  0.00  0.00    +0.000 NA
BRANCH  22  23
ATOM     23  O1  UNL     1       1.143  66.662  65.877  0.00  0.00    +0.000 OA
ATOM     24  H   UNL     1       0.434  66.060  65.990  0.00  0.00    +0.000 HD
ENDBRANCH  22  23
ENDBRANCH   3  21
TORSDOF 7
ENDMDL
MODEL 3
REMARK VINA RESULT:    -8.515      2.227      4.119
REMARK INTER + INTRA:         -12.524
REMARK INTER:                 -12.016
REMARK INTRA:                  -0.509
REMARK UNBOUND:                -0.774
REMARK  Name = laboratorio_evolutivo\Gen6_Mutante_4.pdb
REMARK  11 active torsions:
REMARK  status: ('A' for Active; 'I' for Inactive)
REMARK    1  A    between atoms: C1_1  and  C2_2
REMARK    2  A    between atoms: C2_2  and  C3_3
REMARK    3  A    between atoms: C5_5  and  C6_6
REMARK    4  A    between atoms: N1_7  and  O1_8
REMARK    5  A    between atoms: C7_9  and  C8_10
REMARK    6  A    between atoms: C11_13  and  C12_14
REMARK    7  A    between atoms: C13_15  and  C14_16
REMARK    8  A    between atoms: C14_16  and  C15_18
REMARK    9  A    between atoms: C15_18  and  C16_19
REMARK   10  A    between atoms: C16_19  and  C17_20
REMARK   11  A    between atoms: C16_19  and  C18_21
REMARK                            x       y       z     vdW  Elec       q    Type
REMARK                         _______ _______ _______ _____ _____    ______ ____
ROOT
ATOM      1  C3  UNL     1       4.613  68.170  63.014  0.00  0.00    +0.000 C 
ATOM      2  C4  UNL     1       4.242  66.838  62.907  0.00  0.00    +0.000 C 
ATOM      3  C5  UNL     1       3.936  66.127  64.071  0.00  0.00    +0.000 C 
ATOM      4  C7  UNL     1       3.983  66.752  65.324  0.00  0.00    +0.000 C 
ATOM      5  C19 UNL     1       4.381  68.089  65.314  0.00  0.00    +0.000 C 
ATOM      6  N2  UNL     1       4.687  68.801  64.206  0.00  0.00    +0.000 NA
ENDROOT
BRANCH   4   7
ATOM      7  C8  UNL     1       3.663  66.051  66.628  0.00  0.00    +0.000 C 
ATOM      8  C9  UNL     1       4.900  65.392  67.279  0.00  0.00    +0.000 C 
ATOM      9  C10 UNL     1       4.999  65.973  68.688  0.00  0.00    +0.000 C 
ATOM     10  C11 UNL     1       3.574  66.400  69.041  0.00  0.00    +0.000 C 
ATOM     11  C12 UNL     1       2.746  65.214  69.541  0.00  0.00    +0.000 C 
ATOM     12  C13 UNL     1       3.094  67.001  67.712  0.00  0.00    +0.000 C 
BRANCH  12  13
ATOM     13  C14 UNL     1       1.584  67.199  67.637  0.00  0.00    +0.000 C 
ATOM     14  O2  UNL     1       0.813  66.594  68.382  0.00  0.00    +0.000 OA
BRANCH  13  15
ATOM     15  C15 UNL     1       1.090  68.215  66.613  0.00  0.00    +0.000 C 
BRANCH  15  16
ATOM     16  C16 UNL     1       0.262  67.589  65.481  0.00  0.00    +0.000 C 
ATOM     17  C17 UNL     1      -1.216  67.949  65.651  0.00  0.00    +0.000 C 
ATOM     18  C18 UNL     1       0.752  68.055  64.108  0.00  0.00    +0.000 C 
ENDBRANCH  15  16
ENDBRANCH  13  15
ENDBRANCH  12  13
ENDBRANCH   4   7
BRANCH   1  20
ATOM     19  C1  UNL     1       3.904  68.870  60.718  0.00  0.00    +0.000 C 
ATOM     20  C2  UNL     1       4.979  68.965  61.790  0.00  0.00    +0.000 C 
ENDBRANCH   1  20
BRANCH   3  21
ATOM     21  C6  UNL     1       3.511  64.719  63.925  0.00  0.00    +0.000 C 
ATOM     22  N1  UNL     1       4.179  63.735  63.395  0.00  0.00    +0.000 NA
BRANCH  22  23
ATOM     23  O1  UNL     1       5.467  64.112  63.004  0.00  0.00    +0.000 OA
ATOM     24  H   UNL     1       5.683  65.020  62.918  0.00  0.00    +0.000 HD
ENDBRANCH  22  23
ENDBRANCH   3  21
TORSDOF 7
ENDMDL
MODEL 4
REMARK VINA RESULT:    -8.377      3.132      6.539
REMARK INTER + INTRA:         -12.334
REMARK INTER:                 -11.038
REMARK INTRA:                  -1.295
REMARK UNBOUND:                -0.774
REMARK  Name = laboratorio_evolutivo\Gen6_Mutante_4.pdb
REMARK  11 active torsions:
REMARK  status: ('A' for Active; 'I' for Inactive)
REMARK    1  A    between atoms: C1_1  and  C2_2
REMARK    2  A    between atoms: C2_2  and  C3_3
REMARK    3  A    between atoms: C5_5  and  C6_6
REMARK    4  A    between atoms: N1_7  and  O1_8
REMARK    5  A    between atoms: C7_9  and  C8_10
REMARK    6  A    between atoms: C11_13  and  C12_14
REMARK    7  A    between atoms: C13_15  and  C14_16
REMARK    8  A    between atoms: C14_16  and  C15_18
REMARK    9  A    between atoms: C15_18  and  C16_19
REMARK   10  A    between atoms: C16_19  and  C17_20
REMARK   11  A    between atoms: C16_19  and  C18_21
REMARK                            x       y       z     vdW  Elec       q    Type
REMARK                         _______ _______ _______ _____ _____    ______ ____
ROOT
ATOM      1  C3  UNL     1       3.493  63.265  68.606  0.00  0.00    +0.000 C 
ATOM      2  C4  UNL     1       3.718  64.553  69.065  0.00  0.00    +0.000 C 
ATOM      3  C5  UNL     1       3.880  65.583  68.134  0.00  0.00    +0.000 C 
ATOM      4  C7  UNL     1       3.797  65.324  66.760  0.00  0.00    +0.000 C 
ATOM      5  C19 UNL     1       3.582  63.991  66.412  0.00  0.00    +0.000 C 
ATOM      6  N2  UNL     1       3.426  62.974  67.289  0.00  0.00    +0.000 NA
ENDROOT
BRANCH   4   7
ATOM      7  C8  UNL     1       3.959  66.386  65.692  0.00  0.00    +0.000 C 
ATOM      8  C9  UNL     1       5.068  66.050  64.668  0.00  0.00    +0.000 C 
ATOM      9  C10 UNL     1       4.404  66.084  63.294  0.00  0.00    +0.000 C 
ATOM     10  C11 UNL     1       3.201  67.015  63.459  0.00  0.00    +0.000 C 
ATOM     11  C12 UNL     1       3.615  68.484  63.344  0.00  0.00    +0.000 C 
ATOM     12  C13 UNL     1       2.680  66.602  64.843  0.00  0.00    +0.000 C 
BRANCH  12  13
ATOM     13  C14 UNL     1       1.691  67.594  65.448  0.00  0.00    +0.000 C 
ATOM     14  O2  UNL     1       2.063  68.533  66.150  0.00  0.00    +0.000 OA
BRANCH  13  15
ATOM     15  C15 UNL     1       0.223  67.373  65.103  0.00  0.00    +0.000 C 
BRANCH  15  16
ATOM     16  C16 UNL     1      -0.745  67.974  66.132  0.00  0.00    +0.000 C 
ATOM     17  C17 UNL     1      -1.990  68.516  65.426  0.00  0.00    +0.000 C 
ATOM     18  C18 UNL     1      -1.155  66.941  67.184  0.00  0.00    +0.000 C 
ENDBRANCH  15  16
ENDBRANCH  13  15
ENDBRANCH  12  13
ENDBRANCH   4   7
BRANCH   1  20
ATOM     19  C1  UNL     1       2.416  61.044  69.024  0.00  0.00    +0.000 C 
ATOM     20  C2  UNL     1       3.341  62.120  69.572  0.00  0.00    +0.000 C 
ENDBRANCH   1  20
BRANCH   3  21
ATOM     21  C6  UNL     1       4.084  66.953  68.652  0.00  0.00    +0.000 C 
ATOM     22  N1  UNL     1       3.174  67.826  68.976  0.00  0.00    +0.000 NA
BRANCH  22  23
ATOM     23  O1  UNL     1       1.878  67.316  68.862  0.00  0.00    +0.000 OA
ATOM     24  H   UNL     1       1.512  67.151  68.015  0.00  0.00    +0.000 HD
ENDBRANCH  22  23
ENDBRANCH   3  21
TORSDOF 7
ENDMDL
MODEL 5
REMARK VINA RESULT:    -8.061      3.908      7.326
REMARK INTER + INTRA:         -11.898
REMARK INTER:                 -10.909
REMARK INTRA:                  -0.989
REMARK UNBOUND:                -0.774
REMARK  Name = laboratorio_evolutivo\Gen6_Mutante_4.pdb
REMARK  11 active torsions:
REMARK  status: ('A' for Active; 'I' for Inactive)
REMARK    1  A    between atoms: C1_1  and  C2_2
REMARK    2  A    between atoms: C2_2  and  C3_3
REMARK    3  A    between atoms: C5_5  and  C6_6
REMARK    4  A    between atoms: N1_7  and  O1_8
REMARK    5  A    between atoms: C7_9  and  C8_10
REMARK    6  A    between atoms: C11_13  and  C12_14
REMARK    7  A    between atoms: C13_15  and  C14_16
REMARK    8  A    between atoms: C14_16  and  C15_18
REMARK    9  A    between atoms: C15_18  and  C16_19
REMARK   10  A    between atoms: C16_19  and  C17_20
REMARK   11  A    between atoms: C16_19  and  C18_21
REMARK                            x       y       z     vdW  Elec       q    Type
REMARK                         _______ _______ _______ _____ _____    ______ ____
ROOT
ATOM      1  C3  UNL     1       4.539  62.021  70.678  0.00  0.00    +0.000 C 
ATOM      2  C4  UNL     1       3.181  61.997  70.399  0.00  0.00    +0.000 C 
ATOM      3  C5  UNL     1       2.632  63.026  69.628  0.00  0.00    +0.000 C 
ATOM      4  C7  UNL     1       3.441  64.054  69.128  0.00  0.00    +0.000 C 
ATOM      5  C19 UNL     1       4.788  63.985  69.481  0.00  0.00    +0.000 C 
ATOM      6  N2  UNL     1       5.347  63.006  70.228  0.00  0.00    +0.000 NA
ENDROOT
BRANCH   4   7
ATOM      7  C8  UNL     1       2.921  65.199  68.284  0.00  0.00    +0.000 C 
ATOM      8  C9  UNL     1       2.561  66.450  69.118  0.00  0.00    +0.000 C 
ATOM      9  C10 UNL     1       3.370  67.602  68.528  0.00  0.00    +0.000 C 
ATOM     10  C11 UNL     1       3.639  67.196  67.079  0.00  0.00    +0.000 C 
ATOM     11  C12 UNL     1       2.443  67.518  66.179  0.00  0.00    +0.000 C 
ATOM     12  C13 UNL     1       3.942  65.698  67.230  0.00  0.00    +0.000 C 
BRANCH  12  13
ATOM     13  C14 UNL     1       3.907  64.928  65.914  0.00  0.00    +0.000 C 
ATOM     14  O2  UNL     1       3.228  63.910  65.777  0.00  0.00    +0.000 OA
BRANCH  13  15
ATOM     15  C15 UNL     1       4.730  65.512  64.772  0.00  0.00    +0.000 C 
BRANCH  15  16
ATOM     16  C16 UNL     1       4.267  65.048  63.383  0.00  0.00    +0.000 C 
ATOM     17  C17 UNL     1       4.555  66.134  62.344  0.00  0.00    +0.000 C 
ATOM     18  C18 UNL     1       4.954  63.743  62.972  0.00  0.00    +0.000 C 
ENDBRANCH  15  16
ENDBRANCH  13  15
ENDBRANCH  12  13
ENDBRANCH   4   7
BRANCH   1  20
ATOM     19  C1  UNL     1       4.401  59.640  71.435  0.00  0.00    +0.000 C 
ATOM     20  C2  UNL     1       5.168  60.950  71.528  0.00  0.00    +0.000 C 
ENDBRANCH   1  20
BRANCH   3  21
ATOM     21  C6  UNL     1       1.188  62.957  69.318  0.00  0.00    +0.000 C 
ATOM     22  N1  UNL     1       0.196  63.390  70.041  0.00  0.00    +0.000 NA
BRANCH  22  23
ATOM     23  O1  UNL     1       0.623  64.047  71.198  0.00  0.00    +0.000 OA
ATOM     24  H   UNL     1       1.334  64.657  71.155  0.00  0.00    +0.000 HD
ENDBRANCH  22  23
ENDBRANCH   3  21
TORSDOF 7
ENDMDL
MODEL 6
REMARK VINA RESULT:    -7.959      2.371      5.787
REMARK INTER + INTRA:         -11.758
REMARK INTER:                 -12.116
REMARK INTRA:                   0.358
REMARK UNBOUND:                -0.774
REMARK  Name = laboratorio_evolutivo\Gen6_Mutante_4.pdb
REMARK  11 active torsions:
REMARK  status: ('A' for Active; 'I' for Inactive)
REMARK    1  A    between atoms: C1_1  and  C2_2
REMARK    2  A    between atoms: C2_2  and  C3_3
REMARK    3  A    between atoms: C5_5  and  C6_6
REMARK    4  A    between atoms: N1_7  and  O1_8
REMARK    5  A    between atoms: C7_9  and  C8_10
REMARK    6  A    between atoms: C11_13  and  C12_14
REMARK    7  A    between atoms: C13_15  and  C14_16
REMARK    8  A    between atoms: C14_16  and  C15_18
REMARK    9  A    between atoms: C15_18  and  C16_19
REMARK   10  A    between atoms: C16_19  and  C17_20
REMARK   11  A    between atoms: C16_19  and  C18_21
REMARK                            x       y       z     vdW  Elec       q    Type
REMARK                         _______ _______ _______ _____ _____    ______ ____
ROOT
ATOM      1  C3  UNL     1       4.491  65.867  67.434  0.00  0.00    +0.000 C 
ATOM      2  C4  UNL     1       3.930  67.134  67.473  0.00  0.00    +0.000 C 
ATOM      3  C5  UNL     1       3.003  67.494  66.490  0.00  0.00    +0.000 C 
ATOM      4  C7  UNL     1       2.631  66.583  65.493  0.00  0.00    +0.000 C 
ATOM      5  C19 UNL     1       3.269  65.344  65.542  0.00  0.00    +0.000 C 
ATOM      6  N2  UNL     1       4.171  64.970  66.476  0.00  0.00    +0.000 NA
ENDROOT
BRANCH   4   7
ATOM      7  C8  UNL     1       1.633  66.897  64.397  0.00  0.00    +0.000 C 
ATOM      8  C9  UNL     1       0.177  66.975  64.910  0.00  0.00    +0.000 C 
ATOM      9  C10 UNL     1      -0.344  68.351  64.503  0.00  0.00    +0.000 C 
ATOM     10  C11 UNL     1       0.496  68.750  63.289  0.00  0.00    +0.000 C 
ATOM     11  C12 UNL     1      -0.047  68.116  62.005  0.00  0.00    +0.000 C 
ATOM     12  C13 UNL     1       1.890  68.259  63.704  0.00  0.00    +0.000 C 
BRANCH  12  13
ATOM     13  C14 UNL     1       2.888  68.195  62.552  0.00  0.00    +0.000 C 
ATOM     14  O2  UNL     1       2.673  68.754  61.478  0.00  0.00    +0.000 OA
BRANCH  13  15
ATOM     15  C15 UNL     1       4.178  67.429  62.823  0.00  0.00    +0.000 C 
BRANCH  15  16
ATOM     16  C16 UNL     1       5.379  68.339  63.120  0.00  0.00    +0.000 C 
ATOM     17  C17 UNL     1       5.760  69.130  61.867  0.00  0.00    +0.000 C 
ATOM     18  C18 UNL     1       5.077  69.304  64.269  0.00  0.00    +0.000 C 
ENDBRANCH  15  16
ENDBRANCH  13  15
ENDBRANCH  12  13
ENDBRANCH   4   7
BRANCH   1  20
ATOM     19  C1  UNL     1       4.956  64.409  69.414  0.00  0.00    +0.000 C 
ATOM     20  C2  UNL     1       5.515  65.448  68.455  0.00  0.00    +0.000 C 
ENDBRANCH   1  20
BRANCH   3  21
ATOM     21  C6  UNL     1       2.395  68.838  66.577  0.00  0.00    +0.000 C 
ATOM     22  N1  UNL     1       1.346  69.195  67.260  0.00  0.00    +0.000 NA
BRANCH  22  23
ATOM     23  O1  UNL     1       0.827  68.151  68.031  0.00  0.00    +0.000 OA
ATOM     24  H   UNL     1       0.540  67.360  67.617  0.00  0.00    +0.000 HD
ENDBRANCH  22  23
ENDBRANCH   3  21
TORSDOF 7
ENDMDL
MODEL 7
REMARK VINA RESULT:    -7.938      2.453      6.071
REMARK INTER + INTRA:         -11.729
REMARK INTER:                 -11.233
REMARK INTRA:                  -0.496
REMARK UNBOUND:                -0.774
REMARK  Name = laboratorio_evolutivo\Gen6_Mutante_4.pdb
REMARK  11 active torsions:
REMARK  status: ('A' for Active; 'I' for Inactive)
REMARK    1  A    between atoms: C1_1  and  C2_2
REMARK    2  A    between atoms: C2_2  and  C3_3
REMARK    3  A    between atoms: C5_5  and  C6_6
REMARK    4  A    between atoms: N1_7  and  O1_8
REMARK    5  A    between atoms: C7_9  and  C8_10
REMARK    6  A    between atoms: C11_13  and  C12_14
REMARK    7  A    between atoms: C13_15  and  C14_16
REMARK    8  A    between atoms: C14_16  and  C15_18
REMARK    9  A    between atoms: C15_18  and  C16_19
REMARK   10  A    between atoms: C16_19  and  C17_20
REMARK   11  A    between atoms: C16_19  and  C18_21
REMARK                            x       y       z     vdW  Elec       q    Type
REMARK                         _______ _______ _______ _____ _____    ______ ____
ROOT
ATOM      1  C3  UNL     1       4.851  66.065  68.105  0.00  0.00    +0.000 C 
ATOM      2  C4  UNL     1       3.807  66.976  68.039  0.00  0.00    +0.000 C 
ATOM      3  C5  UNL     1       3.608  67.690  66.853  0.00  0.00    +0.000 C 
ATOM      4  C7  UNL     1       4.434  67.475  65.743  0.00  0.00    +0.000 C 
ATOM      5  C19 UNL     1       5.459  66.548  65.926  0.00  0.00    +0.000 C 
ATOM      6  N2  UNL     1       5.679  65.846  67.061  0.00  0.00    +0.000 NA
ENDROOT
BRANCH   4   7
ATOM      7  C8  UNL     1       4.280  68.206  64.425  0.00  0.00    +0.000 C 
ATOM      8  C9  UNL     1       5.627  68.689  63.840  0.00  0.00    +0.000 C 
ATOM      9  C10 UNL     1       5.720  68.092  62.438  0.00  0.00    +0.000 C 
ATOM     10  C11 UNL     1       4.271  67.858  62.009  0.00  0.00    +0.000 C 
ATOM     11  C12 UNL     1       3.637  69.141  61.468  0.00  0.00    +0.000 C 
ATOM     12  C13 UNL     1       3.646  67.334  63.311  0.00  0.00    +0.000 C 
BRANCH  12  13
ATOM     13  C14 UNL     1       2.121  67.340  63.306  0.00  0.00    +0.000 C 
ATOM     14  O2  UNL     1       1.468  66.344  63.615  0.00  0.00    +0.000 OA
BRANCH  13  15
ATOM     15  C15 UNL     1       1.456  68.660  62.932  0.00  0.00    +0.000 C 
BRANCH  15  16
ATOM     16  C16 UNL     1       0.170  68.486  62.111  0.00  0.00    +0.000 C 
ATOM     17  C17 UNL     1      -1.047  68.475  63.038  0.00  0.00    +0.000 C 
ATOM     18  C18 UNL     1       0.017  69.599  61.071  0.00  0.00    +0.000 C 
ENDBRANCH  15  16
ENDBRANCH  13  15
ENDBRANCH  12  13
ENDBRANCH   4   7
BRANCH   1  20
ATOM     19  C1  UNL     1       4.223  64.074  69.485  0.00  0.00    +0.000 C 
ATOM     20  C2  UNL     1       5.120  65.297  69.371  0.00  0.00    +0.000 C 
ENDBRANCH   1  20
BRANCH   3  21
ATOM     21  C6  UNL     1       2.467  68.628  66.799  0.00  0.00    +0.000 C 
ATOM     22  N1  UNL     1       1.213  68.347  66.588  0.00  0.00    +0.000 NA
BRANCH  22  23
ATOM     23  O1  UNL     1       0.984  66.973  66.479  0.00  0.00    +0.000 OA
ATOM     24  H   UNL     1       1.271  66.394  67.158  0.00  0.00    +0.000 HD
ENDBRANCH  22  23
ENDBRANCH   3  21
TORSDOF 7
ENDMDL
MODEL 8
REMARK VINA RESULT:    -7.710      6.264      9.119
REMARK INTER + INTRA:         -11.414
REMARK INTER:                 -11.003
REMARK INTRA:                  -0.411
REMARK UNBOUND:                -0.774
REMARK  Name = laboratorio_evolutivo\Gen6_Mutante_4.pdb
REMARK  11 active torsions:
REMARK  status: ('A' for Active; 'I' for Inactive)
REMARK    1  A    between atoms: C1_1  and  C2_2
REMARK    2  A    between atoms: C2_2  and  C3_3
REMARK    3  A    between atoms: C5_5  and  C6_6
REMARK    4  A    between atoms: N1_7  and  O1_8
REMARK    5  A    between atoms: C7_9  and  C8_10
REMARK    6  A    between atoms: C11_13  and  C12_14
REMARK    7  A    between atoms: C13_15  and  C14_16
REMARK    8  A    between atoms: C14_16  and  C15_18
REMARK    9  A    between atoms: C15_18  and  C16_19
REMARK   10  A    between atoms: C16_19  and  C17_20
REMARK   11  A    between atoms: C16_19  and  C18_21
REMARK                            x       y       z     vdW  Elec       q    Type
REMARK                         _______ _______ _______ _____ _____    ______ ____
ROOT
ATOM      1  C3  UNL     1       4.149  64.041  68.639  0.00  0.00    +0.000 C 
ATOM      2  C4  UNL     1       4.569  63.490  69.840  0.00  0.00    +0.000 C 
ATOM      3  C5  UNL     1       4.037  62.261  70.242  0.00  0.00    +0.000 C 
ATOM      4  C7  UNL     1       3.109  61.587  69.438  0.00  0.00    +0.000 C 
ATOM      5  C19 UNL     1       2.748  62.239  68.260  0.00  0.00    +0.000 C 
ATOM      6  N2  UNL     1       3.242  63.429  67.847  0.00  0.00    +0.000 NA
ENDROOT
BRANCH   4   7
ATOM      7  C8  UNL     1       2.491  60.253  69.803  0.00  0.00    +0.000 C 
ATOM      8  C9  UNL     1       3.317  59.046  69.301  0.00  0.00    +0.000 C 
ATOM      9  C10 UNL     1       3.620  58.196  70.533  0.00  0.00    +0.000 C 
ATOM     10  C11 UNL     1       2.502  58.522  71.524  0.00  0.00    +0.000 C 
ATOM     11  C12 UNL     1       1.237  57.714  71.222  0.00  0.00    +0.000 C 
ATOM     12  C13 UNL     1       2.353  60.039  71.332  0.00  0.00    +0.000 C 
BRANCH  12  13
ATOM     13  C14 UNL     1       1.072  60.611  71.928  0.00  0.00    +0.000 C 
ATOM     14  O2  UNL     1       0.629  60.220  73.008  0.00  0.00    +0.000 OA
BRANCH  13  15
ATOM     15  C15 UNL     1       0.394  61.718  71.128  0.00  0.00    +0.000 C 
BRANCH  15  16
ATOM     16  C16 UNL     1       0.810  63.131  71.565  0.00  0.00    +0.000 C 
ATOM     17  C17 UNL     1       0.513  64.133  70.448  0.00  0.00    +0.000 C 
ATOM     18  C18 UNL     1       0.086  63.554  72.846  0.00  0.00    +0.000 C 
ENDBRANCH  15  16
ENDBRANCH  13  15
ENDBRANCH  12  13
ENDBRANCH   4   7
BRANCH   1  20
ATOM     19  C1  UNL     1       3.996  66.523  68.914  0.00  0.00    +0.000 C 
ATOM     20  C2  UNL     1       4.673  65.375  68.181  0.00  0.00    +0.000 C 
ENDBRANCH   1  20
BRANCH   3  21
ATOM     21  C6  UNL     1       4.529  61.680  71.509  0.00  0.00    +0.000 C 
ATOM     22  N1  UNL     1       5.539  60.876  71.678  0.00  0.00    +0.000 NA
BRANCH  22  23
ATOM     23  O1  UNL     1       6.233  60.632  70.490  0.00  0.00    +0.000 OA
ATOM     24  H   UNL     1       6.348  61.320  69.864  0.00  0.00    +0.000 HD
ENDBRANCH  22  23
ENDBRANCH   3  21
TORSDOF 7
ENDMDL
MODEL 9
REMARK VINA RESULT:    -7.491      8.001     11.294
REMARK INTER + INTRA:         -11.112
REMARK INTER:                  -9.662
REMARK INTRA:                  -1.450
REMARK UNBOUND:                -0.774
REMARK  Name = laboratorio_evolutivo\Gen6_Mutante_4.pdb
REMARK  11 active torsions:
REMARK  status: ('A' for Active; 'I' for Inactive)
REMARK    1  A    between atoms: C1_1  and  C2_2
REMARK    2  A    between atoms: C2_2  and  C3_3
REMARK    3  A    between atoms: C5_5  and  C6_6
REMARK    4  A    between atoms: N1_7  and  O1_8
REMARK    5  A    between atoms: C7_9  and  C8_10
REMARK    6  A    between atoms: C11_13  and  C12_14
REMARK    7  A    between atoms: C13_15  and  C14_16
REMARK    8  A    between atoms: C14_16  and  C15_18
REMARK    9  A    between atoms: C15_18  and  C16_19
REMARK   10  A    between atoms: C16_19  and  C17_20
REMARK   11  A    between atoms: C16_19  and  C18_21
REMARK                            x       y       z     vdW  Elec       q    Type
REMARK                         _______ _______ _______ _____ _____    ______ ____
ROOT
ATOM      1  C3  UNL     1       0.556  57.330  72.395  0.00  0.00    +0.000 C 
ATOM      2  C4  UNL     1       0.340  58.483  73.134  0.00  0.00    +0.000 C 
ATOM      3  C5  UNL     1       1.119  59.612  72.866  0.00  0.00    +0.000 C 
ATOM      4  C7  UNL     1       2.088  59.588  71.855  0.00  0.00    +0.000 C 
ATOM      5  C19 UNL     1       2.229  58.372  71.186  0.00  0.00    +0.000 C 
ATOM      6  N2  UNL     1       1.494  57.263  71.426  0.00  0.00    +0.000 NA
ENDROOT
BRANCH   4   7
ATOM      7  C8  UNL     1       2.968  60.770  71.503  0.00  0.00    +0.000 C 
ATOM      8  C9  UNL     1       4.379  60.681  72.130  0.00  0.00    +0.000 C 
ATOM      9  C10 UNL     1       5.367  60.783  70.970  0.00  0.00    +0.000 C 
ATOM     10  C11 UNL     1       4.615  61.539  69.874  0.00  0.00    +0.000 C 
ATOM     11  C12 UNL     1       4.665  63.052  70.108  0.00  0.00    +0.000 C 
ATOM     12  C13 UNL     1       3.212  60.922  69.981  0.00  0.00    +0.000 C 
BRANCH  12  13
ATOM     13  C14 UNL     1       2.134  61.717  69.252  0.00  0.00    +0.000 C 
ATOM     14  O2  UNL     1       2.195  61.934  68.043  0.00  0.00    +0.000 OA
BRANCH  13  15
ATOM     15  C15 UNL     1       0.961  62.194  70.102  0.00  0.00    +0.000 C 
BRANCH  15  16
ATOM     16  C16 UNL     1       1.220  63.535  70.803  0.00  0.00    +0.000 C 
ATOM     17  C17 UNL     1       1.240  64.668  69.775  0.00  0.00    +0.000 C 
ATOM     18  C18 UNL     1       0.158  63.822  71.868  0.00  0.00    +0.000 C 
ENDBRANCH  15  16
ENDBRANCH  13  15
ENDBRANCH  12  13
ENDBRANCH   4   7
BRANCH   1  20
ATOM     19  C1  UNL     1      -0.894  56.126  74.043  0.00  0.00    +0.000 C 
ATOM     20  C2  UNL     1      -0.240  56.082  72.670  0.00  0.00    +0.000 C 
ENDBRANCH   1  20
BRANCH   3  21
ATOM     21  C6  UNL     1       0.844  60.838  73.644  0.00  0.00    +0.000 C 
ATOM     22  N1  UNL     1       1.391  61.209  74.766  0.00  0.00    +0.000 NA
BRANCH  22  23
ATOM     23  O1  UNL     1       2.394  60.333  75.188  0.00  0.00    +0.000 OA
ATOM     24  H   UNL     1       3.195  60.672  75.540  0.00  0.00    +0.000 HD
ENDBRANCH  22  23
ENDBRANCH   3  21
TORSDOF 7
ENDMDL
