MODEL 1
REMARK VINA RESULT:    -6.002      0.000      0.000
REMARK INTER + INTRA:          -9.416
REMARK INTER:                  -8.282
REMARK INTRA:                  -1.134
REMARK UNBOUND:                -1.134
REMARK  Name = laboratorio_evolutivo\Gen7_Mutante_4.pdb
REMARK  11 active torsions:
REMARK  status: ('A' for Active; 'I' for Inactive)
REMARK    1  A    between atoms: C1_1  and  C2_2
REMARK    2  A    between atoms: C2_2  and  C3_3
REMARK    3  A    between atoms: C6_6  and  C7_7
REMARK    4  A    between atoms: C9_10  and  C10_11
REMARK    5  A    between atoms: C12_13  and  C13_14
REMARK    6  A    between atoms: N2_15  and  O1_16
REMARK    7  A    between atoms: C14_17  and  C15_18
REMARK    8  A    between atoms: C15_18  and  C16_20
REMARK    9  A    between atoms: C16_20  and  C17_21
REMARK   10  A    between atoms: C17_21  and  C18_22
REMARK   11  A    between atoms: C17_21  and  C19_23
REMARK                            x       y       z     vdW  Elec       q    Type
REMARK                         _______ _______ _______ _____ _____    ______ ____
ROOT
ATOM      1  C3  UNL     1       0.948   2.863  17.254  0.00  0.00    +0.000 C 
ATOM      2  C4  UNL     1       1.827   1.600  17.113  0.00  0.00    +0.000 C 
ATOM      3  C5  UNL     1       2.656   1.502  18.401  0.00  0.00    +0.000 C 
ATOM      4  C6  UNL     1       2.309   2.768  19.203  0.00  0.00    +0.000 C 
ATOM      5  C14 UNL     1       0.861   3.102  18.777  0.00  0.00    +0.000 C 
ENDROOT
BRANCH   4   6
ATOM      6  C7  UNL     1       2.609   2.771  20.680  0.00  0.00    +0.000 C 
ATOM      7  C8  UNL     1       3.026   1.635  21.360  0.00  0.00    +0.000 C 
ATOM      8  N1  UNL     1       3.264   1.578  22.696  0.00  0.00    +0.000 NA
ATOM      9  C9  UNL     1       3.134   2.708  23.420  0.00  0.00    +0.000 C 
ATOM     10  C10 UNL     1       3.430   2.626  24.888  0.00  0.00    +0.000 C 
ATOM     11  C11 UNL     1       2.777   3.913  22.839  0.00  0.00    +0.000 C 
ATOM     12  C12 UNL     1       2.503   3.928  21.473  0.00  0.00    +0.000 C 
BRANCH  12  13
ATOM     13  C13 UNL     1       2.085   5.220  20.896  0.00  0.00    +0.000 C 
ATOM     14  N2  UNL     1       2.872   6.170  20.472  0.00  0.00    +0.000 NA
BRANCH  14  15
ATOM     15  O1  UNL     1       4.223   5.822  20.639  0.00  0.00    +0.000 OA
ATOM     16  H   UNL     1       4.454   4.949  20.887  0.00  0.00    +0.000 HD
ENDBRANCH  14  15
ENDBRANCH  12  13
ENDBRANCH   4   6
BRANCH   1  18
ATOM     17  C1  UNL     1      -0.525   1.495  15.696  0.00  0.00    +0.000 C 
ATOM     18  C2  UNL     1      -0.395   2.775  16.514  0.00  0.00    +0.000 C 
ENDBRANCH   1  18
BRANCH   5  19
ATOM     19  C15 UNL     1      -0.235   2.233  19.412  0.00  0.00    +0.000 C 
ATOM     20  O2  UNL     1      -0.170   0.999  19.434  0.00  0.00    +0.000 OA
BRANCH  19  21
ATOM     21  C16 UNL     1      -1.457   2.946  19.976  0.00  0.00    +0.000 C 
BRANCH  21  22
ATOM     22  C17 UNL     1      -1.419   4.464  19.760  0.00  0.00    +0.000 C 
ATOM     23  C18 UNL     1      -2.484   4.870  18.752  0.00  0.00    +0.000 C 
ATOM     24  C19 UNL     1      -1.650   5.223  21.071  0.00  0.00    +0.000 C 
ENDBRANCH  21  22
ENDBRANCH  19  21
ENDBRANCH   5  19
TORSDOF 7
ENDMDL
MODEL 2
REMARK VINA RESULT:    -5.846     23.561     25.981
REMARK INTER + INTRA:          -9.202
REMARK INTER:                  -8.327
REMARK INTRA:                  -0.875
REMARK UNBOUND:                -1.134
REMARK  Name = laboratorio_evolutivo\Gen7_Mutante_4.pdb
REMARK  11 active torsions:
REMARK  status: ('A' for Active; 'I' for Inactive)
REMARK    1  A    between atoms: C1_1  and  C2_2
REMARK    2  A    between atoms: C2_2  and  C3_3
REMARK    3  A    between atoms: C6_6  and  C7_7
REMARK    4  A    between atoms: C9_10  and  C10_11
REMARK    5  A    between atoms: C12_13  and  C13_14
REMARK    6  A    between atoms: N2_15  and  O1_16
REMARK    7  A    between atoms: C14_17  and  C15_18
REMARK    8  A    between atoms: C15_18  and  C16_20
REMARK    9  A    between atoms: C16_20  and  C17_21
REMARK   10  A    between atoms: C17_21  and  C18_22
REMARK   11  A    between atoms: C17_21  and  C19_23
REMARK                            x       y       z     vdW  Elec       q    Type
REMARK                         _______ _______ _______ _____ _____    ______ ____
ROOT
ATOM      1  C3  UNL     1      22.693  18.029  19.776  0.00  0.00    +0.000 C 
ATOM      2  C4  UNL     1      23.896  18.325  18.852  0.00  0.00    +0.000 C 
ATOM      3  C5  UNL     1      23.313  18.641  17.468  0.00  0.00    +0.000 C 
ATOM      4  C6  UNL     1      21.798  18.415  17.606  0.00  0.00    +0.000 C 
ATOM      5  C14 UNL     1      21.501  18.730  19.089  0.00  0.00    +0.000 C 
ENDROOT
BRANCH   4   6
ATOM      6  C7  UNL     1      20.895  19.043  16.575  0.00  0.00    +0.000 C 
ATOM      7  C8  UNL     1      21.265  20.161  15.839  0.00  0.00    +0.000 C 
ATOM      8  N1  UNL     1      20.471  20.789  14.934  0.00  0.00    +0.000 NA
ATOM      9  C9  UNL     1      19.248  20.275  14.689  0.00  0.00    +0.000 C 
ATOM     10  C10 UNL     1      18.400  20.970  13.665  0.00  0.00    +0.000 C 
ATOM     11  C11 UNL     1      18.793  19.132  15.323  0.00  0.00    +0.000 C 
ATOM     12  C12 UNL     1      19.619  18.535  16.274  0.00  0.00    +0.000 C 
BRANCH  12  13
ATOM     13  C13 UNL     1      19.085  17.343  16.959  0.00  0.00    +0.000 C 
ATOM     14  N2  UNL     1      18.918  16.159  16.438  0.00  0.00    +0.000 NA
BRANCH  14  15
ATOM     15  O1  UNL     1      19.310  16.139  15.089  0.00  0.00    +0.000 OA
ATOM     16  H   UNL     1      19.554  15.330  14.685  0.00  0.00    +0.000 HD
ENDBRANCH  14  15
ENDBRANCH  12  13
ENDBRANCH   4   6
BRANCH   1  18
ATOM     17  C1  UNL     1      21.923  17.739  22.182  0.00  0.00    +0.000 C 
ATOM     18  C2  UNL     1      22.929  18.400  21.247  0.00  0.00    +0.000 C 
ENDBRANCH   1  18
BRANCH   5  19
ATOM     19  C15 UNL     1      21.450  20.221  19.454  0.00  0.00    +0.000 C 
ATOM     20  O2  UNL     1      22.473  20.892  19.633  0.00  0.00    +0.000 OA
BRANCH  19  21
ATOM     21  C16 UNL     1      20.077  20.851  19.650  0.00  0.00    +0.000 C 
BRANCH  21  22
ATOM     22  C17 UNL     1      19.774  21.956  18.631  0.00  0.00    +0.000 C 
ATOM     23  C18 UNL     1      18.362  21.786  18.088  0.00  0.00    +0.000 C 
ATOM     24  C19 UNL     1      19.910  23.349  19.256  0.00  0.00    +0.000 C 
ENDBRANCH  21  22
ENDBRANCH  19  21
ENDBRANCH   5  19
TORSDOF 7
ENDMDL
MODEL 3
REMARK VINA RESULT:    -5.841      3.003      4.983
REMARK INTER + INTRA:          -9.195
REMARK INTER:                  -8.098
REMARK INTRA:                  -1.096
REMARK UNBOUND:                -1.134
REMARK  Name = laboratorio_evolutivo\Gen7_Mutante_4.pdb
REMARK  11 active torsions:
REMARK  status: ('A' for Active; 'I' for Inactive)
REMARK    1  A    between atoms: C1_1  and  C2_2
REMARK    2  A    between atoms: C2_2  and  C3_3
REMARK    3  A    between atoms: C6_6  and  C7_7
REMARK    4  A    between atoms: C9_10  and  C10_11
REMARK    5  A    between atoms: C12_13  and  C13_14
REMARK    6  A    between atoms: N2_15  and  O1_16
REMARK    7  A    between atoms: C14_17  and  C15_18
REMARK    8  A    between atoms: C15_18  and  C16_20
REMARK    9  A    between atoms: C16_20  and  C17_21
REMARK   10  A    between atoms: C17_21  and  C18_22
REMARK   11  A    between atoms: C17_21  and  C19_23
REMARK                            x       y       z     vdW  Elec       q    Type
REMARK                         _______ _______ _______ _____ _____    ______ ____
ROOT
ATOM      1  C3  UNL     1       1.497   3.794  19.736  0.00  0.00    +0.000 C 
ATOM      2  C4  UNL     1       2.131   3.652  18.333  0.00  0.00    +0.000 C 
ATOM      3  C5  UNL     1       2.318   2.148  18.091  0.00  0.00    +0.000 C 
ATOM      4  C6  UNL     1       1.886   1.471  19.402  0.00  0.00    +0.000 C 
ATOM      5  C14 UNL     1       0.825   2.428  19.992  0.00  0.00    +0.000 C 
ENDROOT
BRANCH   4   6
ATOM      6  C7  UNL     1       1.540   0.004  19.357  0.00  0.00    +0.000 C 
ATOM      7  C8  UNL     1       0.933  -0.587  18.257  0.00  0.00    +0.000 C 
ATOM      8  N1  UNL     1       0.561  -1.891  18.187  0.00  0.00    +0.000 NA
ATOM      9  C9  UNL     1       0.835  -2.693  19.236  0.00  0.00    +0.000 C 
ATOM     10  C10 UNL     1       0.441  -4.136  19.124  0.00  0.00    +0.000 C 
ATOM     11  C11 UNL     1       1.487  -2.226  20.365  0.00  0.00    +0.000 C 
ATOM     12  C12 UNL     1       1.820  -0.874  20.419  0.00  0.00    +0.000 C 
BRANCH  12  13
ATOM     13  C13 UNL     1       2.476  -0.403  21.654  0.00  0.00    +0.000 C 
ATOM     14  N2  UNL     1       1.883   0.035  22.729  0.00  0.00    +0.000 NA
BRANCH  14  15
ATOM     15  O1  UNL     1       0.486   0.019  22.579  0.00  0.00    +0.000 OA
ATOM     16  H   UNL     1      -0.004  -0.736  22.839  0.00  0.00    +0.000 HD
ENDBRANCH  14  15
ENDBRANCH  12  13
ENDBRANCH   4   6
BRANCH   1  18
ATOM     17  C1  UNL     1       1.378   6.328  19.909  0.00  0.00    +0.000 C 
ATOM     18  C2  UNL     1       0.590   5.023  19.890  0.00  0.00    +0.000 C 
ENDBRANCH   1  18
BRANCH   5  19
ATOM     19  C15 UNL     1      -0.564   2.362  19.340  0.00  0.00    +0.000 C 
ATOM     20  O2  UNL     1      -0.779   2.790  18.201  0.00  0.00    +0.000 OA
BRANCH  19  21
ATOM     21  C16 UNL     1      -1.705   1.795  20.174  0.00  0.00    +0.000 C 
BRANCH  21  22
ATOM     22  C17 UNL     1      -2.321   0.530  19.564  0.00  0.00    +0.000 C 
ATOM     23  C18 UNL     1      -2.154  -0.641  20.522  0.00  0.00    +0.000 C 
ATOM     24  C19 UNL     1      -3.811   0.722  19.258  0.00  0.00    +0.000 C 
ENDBRANCH  21  22
ENDBRANCH  19  21
ENDBRANCH   5  19
TORSDOF 7
ENDMDL
MODEL 4
REMARK VINA RESULT:    -5.787     25.987     27.900
REMARK INTER + INTRA:          -9.120
REMARK INTER:                  -7.936
REMARK INTRA:                  -1.184
REMARK UNBOUND:                -1.134
REMARK  Name = laboratorio_evolutivo\Gen7_Mutante_4.pdb
REMARK  11 active torsions:
REMARK  status: ('A' for Active; 'I' for Inactive)
REMARK    1  A    between atoms: C1_1  and  C2_2
REMARK    2  A    between atoms: C2_2  and  C3_3
REMARK    3  A    between atoms: C6_6  and  C7_7
REMARK    4  A    between atoms: C9_10  and  C10_11
REMARK    5  A    between atoms: C12_13  and  C13_14
REMARK    6  A    between atoms: N2_15  and  O1_16
REMARK    7  A    between atoms: C14_17  and  C15_18
REMARK    8  A    between atoms: C15_18  and  C16_20
REMARK    9  A    between atoms: C16_20  and  C17_21
REMARK   10  A    between atoms: C17_21  and  C18_22
REMARK   11  A    between atoms: C17_21  and  C19_23
REMARK                            x       y       z     vdW  Elec       q    Type
REMARK                         _______ _______ _______ _____ _____    ______ ____
ROOT
ATOM      1  C3  UNL     1      16.127  -6.065   0.300  0.00  0.00    +0.000 C 
ATOM      2  C4  UNL     1      16.730  -4.806   0.961  0.00  0.00    +0.000 C 
ATOM      3  C5  UNL     1      17.791  -5.302   1.954  0.00  0.00    +0.000 C 
ATOM      4  C6  UNL     1      17.695  -6.836   1.914  0.00  0.00    +0.000 C 
ATOM      5  C14 UNL     1      17.211  -7.150   0.480  0.00  0.00    +0.000 C 
ENDROOT
BRANCH   4   6
ATOM      6  C7  UNL     1      18.868  -7.629   2.433  0.00  0.00    +0.000 C 
ATOM      7  C8  UNL     1      20.087  -7.043   2.744  0.00  0.00    +0.000 C 
ATOM      8  N1  UNL     1      21.184  -7.720   3.170  0.00  0.00    +0.000 NA
ATOM      9  C9  UNL     1      21.084  -9.053   3.351  0.00  0.00    +0.000 C 
ATOM     10  C10 UNL     1      22.301  -9.775   3.850  0.00  0.00    +0.000 C 
ATOM     11  C11 UNL     1      19.902  -9.737   3.126  0.00  0.00    +0.000 C 
ATOM     12  C12 UNL     1      18.807  -9.017   2.652  0.00  0.00    +0.000 C 
BRANCH  12  13
ATOM     13  C13 UNL     1      17.576  -9.785   2.384  0.00  0.00    +0.000 C 
ATOM     14  N2  UNL     1      16.596  -9.994   3.217  0.00  0.00    +0.000 NA
BRANCH  14  15
ATOM     15  O1  UNL     1      16.850  -9.391   4.460  0.00  0.00    +0.000 OA
ATOM     16  H   UNL     1      16.758  -8.464   4.558  0.00  0.00    +0.000 HD
ENDBRANCH  14  15
ENDBRANCH  12  13
ENDBRANCH   4   6
BRANCH   1  18
ATOM     17  C1  UNL     1      15.893  -4.420  -1.625  0.00  0.00    +0.000 C 
ATOM     18  C2  UNL     1      15.638  -5.842  -1.138  0.00  0.00    +0.000 C 
ENDBRANCH   1  18
BRANCH   5  19
ATOM     19  C15 UNL     1      18.281  -7.051  -0.618  0.00  0.00    +0.000 C 
ATOM     20  O2  UNL     1      19.073  -6.105  -0.686  0.00  0.00    +0.000 OA
BRANCH  19  21
ATOM     21  C16 UNL     1      18.303  -8.146  -1.677  0.00  0.00    +0.000 C 
BRANCH  21  22
ATOM     22  C17 UNL     1      17.281  -9.258  -1.412  0.00  0.00    +0.000 C 
ATOM     23  C18 UNL     1      16.321  -9.369  -2.587  0.00  0.00    +0.000 C 
ATOM     24  C19 UNL     1      17.968 -10.610  -1.191  0.00  0.00    +0.000 C 
ENDBRANCH  21  22
ENDBRANCH  19  21
ENDBRANCH   5  19
TORSDOF 7
ENDMDL
MODEL 5
REMARK VINA RESULT:    -5.770     25.931     28.433
REMARK INTER + INTRA:          -9.097
REMARK INTER:                  -8.134
REMARK INTRA:                  -0.963
REMARK UNBOUND:                -1.134
REMARK  Name = laboratorio_evolutivo\Gen7_Mutante_4.pdb
REMARK  11 active torsions:
REMARK  status: ('A' for Active; 'I' for Inactive)
REMARK    1  A    between atoms: C1_1  and  C2_2
REMARK    2  A    between atoms: C2_2  and  C3_3
REMARK    3  A    between atoms: C6_6  and  C7_7
REMARK    4  A    between atoms: C9_10  and  C10_11
REMARK    5  A    between atoms: C12_13  and  C13_14
REMARK    6  A    between atoms: N2_15  and  O1_16
REMARK    7  A    between atoms: C14_17  and  C15_18
REMARK    8  A    between atoms: C15_18  and  C16_20
REMARK    9  A    between atoms: C16_20  and  C17_21
REMARK   10  A    between atoms: C17_21  and  C18_22
REMARK   11  A    between atoms: C17_21  and  C19_23
REMARK                            x       y       z     vdW  Elec       q    Type
REMARK                         _______ _______ _______ _____ _____    ______ ____
ROOT
ATOM      1  C3  UNL     1      15.595 -10.484   2.350  0.00  0.00    +0.000 C 
ATOM      2  C4  UNL     1      15.386  -9.100   3.007  0.00  0.00    +0.000 C 
ATOM      3  C5  UNL     1      16.749  -8.676   3.570  0.00  0.00    +0.000 C 
ATOM      4  C6  UNL     1      17.682  -9.872   3.315  0.00  0.00    +0.000 C 
ATOM      5  C14 UNL     1      17.108 -10.538   2.044  0.00  0.00    +0.000 C 
ENDROOT
BRANCH   4   6
ATOM      6  C7  UNL     1      19.169  -9.627   3.352  0.00  0.00    +0.000 C 
ATOM      7  C8  UNL     1      19.715  -8.351   3.378  0.00  0.00    +0.000 C 
ATOM      8  N1  UNL     1      21.045  -8.079   3.365  0.00  0.00    +0.000 NA
ATOM      9  C9  UNL     1      21.911  -9.113   3.373  0.00  0.00    +0.000 C 
ATOM     10  C10 UNL     1      23.376  -8.788   3.388  0.00  0.00    +0.000 C 
ATOM     11  C11 UNL     1      21.481 -10.429   3.403  0.00  0.00    +0.000 C 
ATOM     12  C12 UNL     1      20.109 -10.672   3.377  0.00  0.00    +0.000 C 
BRANCH  12  13
ATOM     13  C13 UNL     1      19.688 -12.086   3.368  0.00  0.00    +0.000 C 
ATOM     14  N2  UNL     1      19.726 -12.912   4.376  0.00  0.00    +0.000 NA
BRANCH  14  15
ATOM     15  O1  UNL     1      20.242 -12.288   5.524  0.00  0.00    +0.000 OA
ATOM     16  H   UNL     1      19.785 -11.569   5.912  0.00  0.00    +0.000 HD
ENDBRANCH  14  15
ENDBRANCH  12  13
ENDBRANCH   4   6
BRANCH   1  18
ATOM     17  C1  UNL     1      13.402  -9.903   1.202  0.00  0.00    +0.000 C 
ATOM     18  C2  UNL     1      14.664 -10.757   1.161  0.00  0.00    +0.000 C 
ENDBRANCH   1  18
BRANCH   5  19
ATOM     19  C15 UNL     1      17.431  -9.828   0.720  0.00  0.00    +0.000 C 
ATOM     20  O2  UNL     1      17.277  -8.612   0.568  0.00  0.00    +0.000 OA
BRANCH  19  21
ATOM     21  C16 UNL     1      17.903 -10.692  -0.442  0.00  0.00    +0.000 C 
BRANCH  21  22
ATOM     22  C17 UNL     1      17.846 -12.193  -0.136  0.00  0.00    +0.000 C 
ATOM     23  C18 UNL     1      16.900 -12.883  -1.108  0.00  0.00    +0.000 C 
ATOM     24  C19 UNL     1      19.232 -12.840  -0.236  0.00  0.00    +0.000 C 
ENDBRANCH  21  22
ENDBRANCH  19  21
ENDBRANCH   5  19
TORSDOF 7
ENDMDL
MODEL 6
REMARK VINA RESULT:    -5.761     25.972     27.824
REMARK INTER + INTRA:          -9.084
REMARK INTER:                  -8.001
REMARK INTRA:                  -1.083
REMARK UNBOUND:                -1.134
REMARK  Name = laboratorio_evolutivo\Gen7_Mutante_4.pdb
REMARK  11 active torsions:
REMARK  status: ('A' for Active; 'I' for Inactive)
REMARK    1  A    between atoms: C1_1  and  C2_2
REMARK    2  A    between atoms: C2_2  and  C3_3
REMARK    3  A    between atoms: C6_6  and  C7_7
REMARK    4  A    between atoms: C9_10  and  C10_11
REMARK    5  A    between atoms: C12_13  and  C13_14
REMARK    6  A    between atoms: N2_15  and  O1_16
REMARK    7  A    between atoms: C14_17  and  C15_18
REMARK    8  A    between atoms: C15_18  and  C16_20
REMARK    9  A    between atoms: C16_20  and  C17_21
REMARK   10  A    between atoms: C17_21  and  C18_22
REMARK   11  A    between atoms: C17_21  and  C19_23
REMARK                            x       y       z     vdW  Elec       q    Type
REMARK                         _______ _______ _______ _____ _____    ______ ____
ROOT
ATOM      1  C3  UNL     1      18.124 -10.531   2.627  0.00  0.00    +0.000 C 
ATOM      2  C4  UNL     1      16.788 -10.414   3.397  0.00  0.00    +0.000 C 
ATOM      3  C5  UNL     1      16.346  -8.949   3.278  0.00  0.00    +0.000 C 
ATOM      4  C6  UNL     1      17.489  -8.240   2.533  0.00  0.00    +0.000 C 
ATOM      5  C14 UNL     1      18.103  -9.343   1.641  0.00  0.00    +0.000 C 
ENDROOT
BRANCH   4   6
ATOM      6  C7  UNL     1      17.191  -6.914   1.881  0.00  0.00    +0.000 C 
ATOM      7  C8  UNL     1      15.948  -6.610   1.342  0.00  0.00    +0.000 C 
ATOM      8  N1  UNL     1      15.645  -5.450   0.704  0.00  0.00    +0.000 NA
ATOM      9  C9  UNL     1      16.596  -4.497   0.620  0.00  0.00    +0.000 C 
ATOM     10  C10 UNL     1      16.228  -3.213  -0.063  0.00  0.00    +0.000 C 
ATOM     11  C11 UNL     1      17.855  -4.668   1.170  0.00  0.00    +0.000 C 
ATOM     12  C12 UNL     1      18.144  -5.885   1.783  0.00  0.00    +0.000 C 
BRANCH  12  13
ATOM     13  C13 UNL     1      19.508  -6.048   2.321  0.00  0.00    +0.000 C 
ATOM     14  N2  UNL     1      20.543  -6.517   1.681  0.00  0.00    +0.000 NA
BRANCH  14  15
ATOM     15  O1  UNL     1      20.206  -6.877   0.366  0.00  0.00    +0.000 OA
ATOM     16  H   UNL     1      19.360  -6.665   0.025  0.00  0.00    +0.000 HD
ENDBRANCH  14  15
ENDBRANCH  12  13
ENDBRANCH   4   6
BRANCH   1  18
ATOM     17  C1  UNL     1      18.851 -12.935   3.023  0.00  0.00    +0.000 C 
ATOM     18  C2  UNL     1      18.365 -11.913   2.003  0.00  0.00    +0.000 C 
ENDBRANCH   1  18
BRANCH   5  19
ATOM     19  C15 UNL     1      17.308  -9.690   0.373  0.00  0.00    +0.000 C 
ATOM     20  O2  UNL     1      16.183 -10.197   0.417  0.00  0.00    +0.000 OA
BRANCH  19  21
ATOM     21  C16 UNL     1      17.982  -9.436  -0.969  0.00  0.00    +0.000 C 
BRANCH  21  22
ATOM     22  C17 UNL     1      17.122  -8.599  -1.923  0.00  0.00    +0.000 C 
ATOM     23  C18 UNL     1      17.608  -7.157  -1.928  0.00  0.00    +0.000 C 
ATOM     24  C19 UNL     1      17.168  -9.152  -3.352  0.00  0.00    +0.000 C 
ENDBRANCH  21  22
ENDBRANCH  19  21
ENDBRANCH   5  19
TORSDOF 7
ENDMDL
MODEL 7
REMARK VINA RESULT:    -5.751      1.605      2.361
REMARK INTER + INTRA:          -9.070
REMARK INTER:                  -8.633
REMARK INTRA:                  -0.438
REMARK UNBOUND:                -1.134
REMARK  Name = laboratorio_evolutivo\Gen7_Mutante_4.pdb
REMARK  11 active torsions:
REMARK  status: ('A' for Active; 'I' for Inactive)
REMARK    1  A    between atoms: C1_1  and  C2_2
REMARK    2  A    between atoms: C2_2  and  C3_3
REMARK    3  A    between atoms: C6_6  and  C7_7
REMARK    4  A    between atoms: C9_10  and  C10_11
REMARK    5  A    between atoms: C12_13  and  C13_14
REMARK    6  A    between atoms: N2_15  and  O1_16
REMARK    7  A    between atoms: C14_17  and  C15_18
REMARK    8  A    between atoms: C15_18  and  C16_20
REMARK    9  A    between atoms: C16_20  and  C17_21
REMARK   10  A    between atoms: C17_21  and  C18_22
REMARK   11  A    between atoms: C17_21  and  C19_23
REMARK                            x       y       z     vdW  Elec       q    Type
REMARK                         _______ _______ _______ _____ _____    ______ ____
ROOT
ATOM      1  C3  UNL     1       1.054   2.742  17.347  0.00  0.00    +0.000 C 
ATOM      2  C4  UNL     1       1.858   1.426  17.254  0.00  0.00    +0.000 C 
ATOM      3  C5  UNL     1       2.671   1.321  18.551  0.00  0.00    +0.000 C 
ATOM      4  C6  UNL     1       2.394   2.630  19.309  0.00  0.00    +0.000 C 
ATOM      5  C14 UNL     1       0.971   3.035  18.861  0.00  0.00    +0.000 C 
ENDROOT
BRANCH   4   6
ATOM      6  C7  UNL     1       2.685   2.664  20.788  0.00  0.00    +0.000 C 
ATOM      7  C8  UNL     1       2.907   1.513  21.532  0.00  0.00    +0.000 C 
ATOM      8  N1  UNL     1       3.127   1.489  22.872  0.00  0.00    +0.000 NA
ATOM      9  C9  UNL     1       3.181   2.663  23.534  0.00  0.00    +0.000 C 
ATOM     10  C10 UNL     1       3.454   2.612  25.008  0.00  0.00    +0.000 C 
ATOM     11  C11 UNL     1       3.029   3.877  22.886  0.00  0.00    +0.000 C 
ATOM     12  C12 UNL     1       2.766   3.863  21.518  0.00  0.00    +0.000 C 
BRANCH  12  13
ATOM     13  C13 UNL     1       2.569   5.173  20.868  0.00  0.00    +0.000 C 
ATOM     14  N2  UNL     1       1.464   5.864  20.838  0.00  0.00    +0.000 NA
BRANCH  14  15
ATOM     15  O1  UNL     1       0.429   5.196  21.512  0.00  0.00    +0.000 OA
ATOM     16  H   UNL     1       0.368   5.249  22.446  0.00  0.00    +0.000 HD
ENDBRANCH  14  15
ENDBRANCH  12  13
ENDBRANCH   4   6
BRANCH   1  18
ATOM     17  C1  UNL     1      -0.131   2.286  15.143  0.00  0.00    +0.000 C 
ATOM     18  C2  UNL     1      -0.287   2.709  16.600  0.00  0.00    +0.000 C 
ENDBRANCH   1  18
BRANCH   5  19
ATOM     19  C15 UNL     1      -0.178   2.253  19.514  0.00  0.00    +0.000 C 
ATOM     20  O2  UNL     1      -1.112   2.815  20.096  0.00  0.00    +0.000 OA
BRANCH  19  21
ATOM     21  C16 UNL     1      -0.105   0.732  19.474  0.00  0.00    +0.000 C 
BRANCH  21  22
ATOM     22  C17 UNL     1      -0.581   0.074  20.775  0.00  0.00    +0.000 C 
ATOM     23  C18 UNL     1      -1.954  -0.548  20.567  0.00  0.00    +0.000 C 
ATOM     24  C19 UNL     1       0.397  -1.008  21.247  0.00  0.00    +0.000 C 
ENDBRANCH  21  22
ENDBRANCH  19  21
ENDBRANCH   5  19
TORSDOF 7
ENDMDL
MODEL 8
REMARK VINA RESULT:    -5.677      3.105      5.329
REMARK INTER + INTRA:          -8.969
REMARK INTER:                  -8.372
REMARK INTRA:                  -0.597
REMARK UNBOUND:                -1.134
REMARK  Name = laboratorio_evolutivo\Gen7_Mutante_4.pdb
REMARK  11 active torsions:
REMARK  status: ('A' for Active; 'I' for Inactive)
REMARK    1  A    between atoms: C1_1  and  C2_2
REMARK    2  A    between atoms: C2_2  and  C3_3
REMARK    3  A    between atoms: C6_6  and  C7_7
REMARK    4  A    between atoms: C9_10  and  C10_11
REMARK    5  A    between atoms: C12_13  and  C13_14
REMARK    6  A    between atoms: N2_15  and  O1_16
REMARK    7  A    between atoms: C14_17  and  C15_18
REMARK    8  A    between atoms: C15_18  and  C16_20
REMARK    9  A    between atoms: C16_20  and  C17_21
REMARK   10  A    between atoms: C17_21  and  C18_22
REMARK   11  A    between atoms: C17_21  and  C19_23
REMARK                            x       y       z     vdW  Elec       q    Type
REMARK                         _______ _______ _______ _____ _____    ______ ____
ROOT
ATOM      1  C3  UNL     1       1.475  -2.267  20.234  0.00  0.00    +0.000 C 
ATOM      2  C4  UNL     1       0.231  -1.994  21.109  0.00  0.00    +0.000 C 
ATOM      3  C5  UNL     1       0.240  -0.492  21.422  0.00  0.00    +0.000 C 
ATOM      4  C6  UNL     1       1.545   0.041  20.806  0.00  0.00    +0.000 C 
ATOM      5  C14 UNL     1       1.810  -0.896  19.606  0.00  0.00    +0.000 C 
ENDROOT
BRANCH   4   6
ATOM      6  C7  UNL     1       1.653   1.524  20.558  0.00  0.00    +0.000 C 
ATOM      7  C8  UNL     1       0.764   2.212  19.743  0.00  0.00    +0.000 C 
ATOM      8  N1  UNL     1       0.846   3.536  19.453  0.00  0.00    +0.000 NA
ATOM      9  C9  UNL     1       1.832   4.257  20.025  0.00  0.00    +0.000 C 
ATOM     10  C10 UNL     1       1.886   5.723  19.712  0.00  0.00    +0.000 C 
ATOM     11  C11 UNL     1       2.744   3.689  20.898  0.00  0.00    +0.000 C 
ATOM     12  C12 UNL     1       2.653   2.320  21.143  0.00  0.00    +0.000 C 
BRANCH  12  13
ATOM     13  C13 UNL     1       3.666   1.741  22.046  0.00  0.00    +0.000 C 
ATOM     14  N2  UNL     1       3.524   1.505  23.320  0.00  0.00    +0.000 NA
BRANCH  14  15
ATOM     15  O1  UNL     1       2.248   1.884  23.768  0.00  0.00    +0.000 OA
ATOM     16  H   UNL     1       2.080   1.970  24.685  0.00  0.00    +0.000 HD
ENDBRANCH  14  15
ENDBRANCH  12  13
ENDBRANCH   4   6
BRANCH   1  18
ATOM     17  C1  UNL     1       2.635  -4.002  18.781  0.00  0.00    +0.000 C 
ATOM     18  C2  UNL     1       1.301  -3.428  19.245  0.00  0.00    +0.000 C 
ENDBRANCH   1  18
BRANCH   5  19
ATOM     19  C15 UNL     1       0.953  -0.634  18.358  0.00  0.00    +0.000 C 
ATOM     20  O2  UNL     1      -0.277  -0.756  18.364  0.00  0.00    +0.000 OA
BRANCH  19  21
ATOM     21  C16 UNL     1       1.681  -0.268  17.071  0.00  0.00    +0.000 C 
BRANCH  21  22
ATOM     22  C17 UNL     1       2.155  -1.493  16.281  0.00  0.00    +0.000 C 
ATOM     23  C18 UNL     1       1.504  -1.505  14.905  0.00  0.00    +0.000 C 
ATOM     24  C19 UNL     1       3.679  -1.500  16.118  0.00  0.00    +0.000 C 
ENDBRANCH  21  22
ENDBRANCH  19  21
ENDBRANCH   5  19
TORSDOF 7
ENDMDL
MODEL 9
REMARK VINA RESULT:    -5.605      3.845      6.955
REMARK INTER + INTRA:          -8.869
REMARK INTER:                  -7.515
REMARK INTRA:                  -1.354
REMARK UNBOUND:                -1.134
REMARK  Name = laboratorio_evolutivo\Gen7_Mutante_4.pdb
REMARK  11 active torsions:
REMARK  status: ('A' for Active; 'I' for Inactive)
REMARK    1  A    between atoms: C1_1  and  C2_2
REMARK    2  A    between atoms: C2_2  and  C3_3
REMARK    3  A    between atoms: C6_6  and  C7_7
REMARK    4  A    between atoms: C9_10  and  C10_11
REMARK    5  A    between atoms: C12_13  and  C13_14
REMARK    6  A    between atoms: N2_15  and  O1_16
REMARK    7  A    between atoms: C14_17  and  C15_18
REMARK    8  A    between atoms: C15_18  and  C16_20
REMARK    9  A    between atoms: C16_20  and  C17_21
REMARK   10  A    between atoms: C17_21  and  C18_22
REMARK   11  A    between atoms: C17_21  and  C19_23
REMARK                            x       y       z     vdW  Elec       q    Type
REMARK                         _______ _______ _______ _____ _____    ______ ____
ROOT
ATOM      1  C3  UNL     1       2.836   1.810  19.411  0.00  0.00    +0.000 C 
ATOM      2  C4  UNL     1       2.224   2.822  18.416  0.00  0.00    +0.000 C 
ATOM      3  C5  UNL     1       1.478   1.996  17.360  0.00  0.00    +0.000 C 
ATOM      4  C6  UNL     1       1.768   0.529  17.715  0.00  0.00    +0.000 C 
ATOM      5  C14 UNL     1       1.972   0.542  19.247  0.00  0.00    +0.000 C 
ENDROOT
BRANCH   4   6
ATOM      6  C7  UNL     1       0.852  -0.528  17.151  0.00  0.00    +0.000 C 
ATOM      7  C8  UNL     1      -0.456  -0.257  16.772  0.00  0.00    +0.000 C 
ATOM      8  N1  UNL     1      -1.332  -1.183  16.303  0.00  0.00    +0.000 NA
ATOM      9  C9  UNL     1      -0.902  -2.452  16.148  0.00  0.00    +0.000 C 
ATOM     10  C10 UNL     1      -1.880  -3.450  15.602  0.00  0.00    +0.000 C 
ATOM     11  C11 UNL     1       0.398  -2.826  16.442  0.00  0.00    +0.000 C 
ATOM     12  C12 UNL     1       1.259  -1.860  16.957  0.00  0.00    +0.000 C 
BRANCH  12  13
ATOM     13  C13 UNL     1       2.624  -2.304  17.297  0.00  0.00    +0.000 C 
ATOM     14  N2  UNL     1       3.640  -2.379  16.484  0.00  0.00    +0.000 NA
BRANCH  14  15
ATOM     15  O1  UNL     1       3.281  -1.982  15.185  0.00  0.00    +0.000 OA
ATOM     16  H   UNL     1       2.518  -2.344  14.779  0.00  0.00    +0.000 HD
ENDBRANCH  14  15
ENDBRANCH  12  13
ENDBRANCH   4   6
BRANCH   1  18
ATOM     17  C1  UNL     1       3.853   1.460  21.715  0.00  0.00    +0.000 C 
ATOM     18  C2  UNL     1       2.971   2.346  20.843  0.00  0.00    +0.000 C 
ENDBRANCH   1  18
BRANCH   5  19
ATOM     19  C15 UNL     1       0.688   0.634  20.086  0.00  0.00    +0.000 C 
ATOM     20  O2  UNL     1      -0.147   1.529  19.919  0.00  0.00    +0.000 OA
BRANCH  19  21
ATOM     21  C16 UNL     1       0.496  -0.397  21.191  0.00  0.00    +0.000 C 
BRANCH  21  22
ATOM     22  C17 UNL     1       1.326  -1.668  20.976  0.00  0.00    +0.000 C 
ATOM     23  C18 UNL     1       2.242  -1.895  22.170  0.00  0.00    +0.000 C 
ATOM     24  C19 UNL     1       0.431  -2.897  20.785  0.00  0.00    +0.000 C 
ENDBRANCH  21  22
ENDBRANCH  19  21
ENDBRANCH   5  19
TORSDOF 7
ENDMDL
