REMARK  Name = laboratorio_evolutivo\Gen7_Mutante_4.pdb
REMARK  11 active torsions:
REMARK  status: ('A' for Active; 'I' for Inactive)
REMARK    1  A    between atoms: C1_1  and  C2_2
REMARK    2  A    between atoms: C2_2  and  C3_3
REMARK    3  A    between atoms: C6_6  and  C7_7
REMARK    4  A    between atoms: C9_10  and  C10_11
REMARK    5  A    between atoms: C12_13  and  C13_14
REMARK    6  A    between atoms: N2_15  and  O1_16
REMARK    7  A    between atoms: C14_17  and  C15_18
REMARK    8  A    between atoms: C15_18  and  C16_20
REMARK    9  A    between atoms: C16_20  and  C17_21
REMARK   10  A    between atoms: C17_21  and  C18_22
REMARK   11  A    between atoms: C17_21  and  C19_23
REMARK                            x       y       z     vdW  Elec       q    Type
REMARK                         _______ _______ _______ _____ _____    ______ ____
ROOT
ATOM      1  C3  UNL     1       0.374   2.725   0.245  0.00  0.00    +0.000 C 
ATOM      2  C4  UNL     1      -0.600   2.921   1.429  0.00  0.00    +0.000 C 
ATOM      3  C5  UNL     1      -1.544   1.711   1.420  0.00  0.00    +0.000 C 
ATOM      4  C6  UNL     1      -1.156   0.905   0.169  0.00  0.00    +0.000 C 
ATOM      5  C14 UNL     1       0.348   1.205  -0.025  0.00  0.00    +0.000 C 
ENDROOT
BRANCH   4   6
ATOM      6  C7  UNL     1      -1.584  -0.539   0.100  0.00  0.00    +0.000 C 
ATOM      7  C8  UNL     1      -1.398  -1.424   1.153  0.00  0.00    +0.000 C 
ATOM      8  N1  UNL     1      -1.724  -2.742   1.122  0.00  0.00    +0.000 NA
ATOM      9  C9  UNL     1      -2.312  -3.231   0.011  0.00  0.00    +0.000 C 
ATOM     10  C10 UNL     1      -2.689  -4.683   0.011  0.00  0.00    +0.000 C 
ATOM     11  C11 UNL     1      -2.597  -2.429  -1.081  0.00  0.00    +0.000 C 
ATOM     12  C12 UNL     1      -2.214  -1.090  -1.030  0.00  0.00    +0.000 C 
BRANCH  12  13
ATOM     13  C13 UNL     1      -2.496  -0.275  -2.227  0.00  0.00    +0.000 C 
ATOM     14  N2  UNL     1      -3.615   0.334  -2.504  0.00  0.00    +0.000 NA
BRANCH  14  15
ATOM     15  O1  UNL     1      -4.573   0.116  -1.500  0.00  0.00    +0.000 OA
ATOM     16  H   UNL     1      -5.425   0.498  -1.575  0.00  0.00    +0.000 HD
ENDBRANCH  14  15
ENDBRANCH  12  13
ENDBRANCH   4   6
BRANCH   1  18
ATOM     17  C1  UNL     1       1.721   4.861   0.546  0.00  0.00    +0.000 C 
ATOM     18  C2  UNL     1       1.763   3.339   0.471  0.00  0.00    +0.000 C 
ENDBRANCH   1  18
BRANCH   5  19
ATOM     19  C15 UNL     1       1.301   0.458   0.920  0.00  0.00    +0.000 C 
ATOM     20  O2  UNL     1       1.066   0.326   2.126  0.00  0.00    +0.000 OA
BRANCH  19  21
ATOM     21  C16 UNL     1       2.598  -0.079   0.329  0.00  0.00    +0.000 C 
BRANCH  21  22
ATOM     22  C17 UNL     1       2.478  -1.526  -0.164  0.00  0.00    +0.000 C 
ATOM     23  C18 UNL     1       3.729  -1.914  -0.939  0.00  0.00    +0.000 C 
ATOM     24  C19 UNL     1       2.284  -2.502   1.002  0.00  0.00    +0.000 C 
ENDBRANCH  21  22
ENDBRANCH  19  21
ENDBRANCH   5  19
TORSDOF 7
