MODEL 1
REMARK VINA RESULT:    -6.033      0.000      0.000
REMARK INTER + INTRA:          -9.177
REMARK INTER:                  -7.973
REMARK INTRA:                  -1.204
REMARK UNBOUND:                -1.204
REMARK  Name = laboratorio_evolutivo\Gen7_Mutante_7.pdb
REMARK  10 active torsions:
REMARK  status: ('A' for Active; 'I' for Inactive)
REMARK    1  A    between atoms: C1_1  and  C2_2
REMARK    2  A    between atoms: C4_5  and  C5_6
REMARK    3  A    between atoms: C8_9  and  C9_10
REMARK    4  A    between atoms: C10_11  and  C11_12
REMARK    5  A    between atoms: C11_12  and  C12_14
REMARK    6  A    between atoms: C12_14  and  C13_15
REMARK    7  A    between atoms: C13_15  and  C14_16
REMARK    8  A    between atoms: C13_15  and  C15_17
REMARK    9  A    between atoms: C16_18  and  C17_19
REMARK   10  A    between atoms: N2_20  and  O2_21
REMARK                            x       y       z     vdW  Elec       q    Type
REMARK                         _______ _______ _______ _____ _____    ______ ____
ROOT
ATOM      1  C1  UNL     1       4.103   3.550  21.828  0.00  0.00    +0.000 C 
ATOM      2  C2  UNL     1       3.030   2.632  21.325  0.00  0.00    +0.000 C 
ATOM      3  N1  UNL     1       1.952   3.196  20.735  0.00  0.00    +0.000 NA
ATOM      4  C3  UNL     1       0.964   2.373  20.306  0.00  0.00    +0.000 C 
ATOM      5  C4  UNL     1       0.960   0.988  20.450  0.00  0.00    +0.000 C 
ATOM      6  C16 UNL     1       2.094   0.441  21.083  0.00  0.00    +0.000 C 
ATOM      7  C18 UNL     1       3.130   1.266  21.524  0.00  0.00    +0.000 C 
ATOM      8  F1  UNL     1       4.194   0.771  22.171  0.00  0.00    +0.000 F 
ENDROOT
BRANCH   5   9
ATOM      9  C5  UNL     1      -0.179   0.137  19.931  0.00  0.00    +0.000 C 
ATOM     10  C6  UNL     1      -1.562   0.781  19.764  0.00  0.00    +0.000 C 
ATOM     11  C7  UNL     1      -2.347  -0.305  19.043  0.00  0.00    +0.000 C 
ATOM     12  C8  UNL     1      -1.361  -0.869  18.014  0.00  0.00    +0.000 C 
ATOM     13  C9  UNL     1      -1.571  -2.359  17.772  0.00  0.00    +0.000 C 
ATOM     14  C10 UNL     1       0.052  -0.556  18.569  0.00  0.00    +0.000 C 
BRANCH  14  15
ATOM     15  C11 UNL     1       0.801   0.330  17.571  0.00  0.00    +0.000 C 
ATOM     16  O1  UNL     1       0.262   1.308  17.052  0.00  0.00    +0.000 OA
BRANCH  15  17
ATOM     17  C12 UNL     1       2.213  -0.108  17.209  0.00  0.00    +0.000 C 
BRANCH  17  18
ATOM     18  C13 UNL     1       2.272  -1.470  16.502  0.00  0.00    +0.000 C 
ATOM     19  C14 UNL     1       3.713  -1.786  16.098  0.00  0.00    +0.000 C 
ATOM     20  C15 UNL     1       1.369  -1.496  15.267  0.00  0.00    +0.000 C 
ENDBRANCH  17  18
ENDBRANCH  15  17
ENDBRANCH  14  15
ENDBRANCH   5   9
BRANCH   6  21
ATOM     21  C17 UNL     1       2.200  -1.010  21.312  0.00  0.00    +0.000 C 
ATOM     22  N2  UNL     1       2.109  -1.537  22.493  0.00  0.00    +0.000 NA
BRANCH  22  23
ATOM     23  O2  UNL     1       2.275  -2.922  22.386  0.00  0.00    +0.000 OA
ATOM     24  H   UNL     1       1.778  -3.496  22.934  0.00  0.00    +0.000 HD
ENDBRANCH  22  23
ENDBRANCH   6  21
TORSDOF 6
ENDMDL
MODEL 2
REMARK VINA RESULT:    -5.989     22.443     26.031
REMARK INTER + INTRA:          -9.118
REMARK INTER:                  -7.873
REMARK INTRA:                  -1.245
REMARK UNBOUND:                -1.204
REMARK  Name = laboratorio_evolutivo\Gen7_Mutante_7.pdb
REMARK  10 active torsions:
REMARK  status: ('A' for Active; 'I' for Inactive)
REMARK    1  A    between atoms: C1_1  and  C2_2
REMARK    2  A    between atoms: C4_5  and  C5_6
REMARK    3  A    between atoms: C8_9  and  C9_10
REMARK    4  A    between atoms: C10_11  and  C11_12
REMARK    5  A    between atoms: C11_12  and  C12_14
REMARK    6  A    between atoms: C12_14  and  C13_15
REMARK    7  A    between atoms: C13_15  and  C14_16
REMARK    8  A    between atoms: C13_15  and  C15_17
REMARK    9  A    between atoms: C16_18  and  C17_19
REMARK   10  A    between atoms: N2_20  and  O2_21
REMARK                            x       y       z     vdW  Elec       q    Type
REMARK                         _______ _______ _______ _____ _____    ______ ____
ROOT
ATOM      1  C1  UNL     1      19.679 -10.468   4.269  0.00  0.00    +0.000 C 
ATOM      2  C2  UNL     1      19.326  -9.578   3.117  0.00  0.00    +0.000 C 
ATOM      3  N1  UNL     1      18.475 -10.069   2.187  0.00  0.00    +0.000 NA
ATOM      4  C3  UNL     1      18.176  -9.281   1.126  0.00  0.00    +0.000 C 
ATOM      5  C4  UNL     1      18.700  -8.009   0.903  0.00  0.00    +0.000 C 
ATOM      6  C16 UNL     1      19.594  -7.542   1.886  0.00  0.00    +0.000 C 
ATOM      7  C18 UNL     1      19.910  -8.329   2.994  0.00  0.00    +0.000 C 
ATOM      8  F1  UNL     1      20.794  -7.923   3.915  0.00  0.00    +0.000 F 
ENDROOT
BRANCH   5   9
ATOM      9  C5  UNL     1      18.305  -7.186  -0.304  0.00  0.00    +0.000 C 
ATOM     10  C6  UNL     1      17.899  -7.916  -1.593  0.00  0.00    +0.000 C 
ATOM     11  C7  UNL     1      17.387  -6.782  -2.468  0.00  0.00    +0.000 C 
ATOM     12  C8  UNL     1      16.582  -5.896  -1.509  0.00  0.00    +0.000 C 
ATOM     13  C9  UNL     1      16.667  -4.420  -1.883  0.00  0.00    +0.000 C 
ATOM     14  C10 UNL     1      17.153  -6.177  -0.096  0.00  0.00    +0.000 C 
BRANCH  14  15
ATOM     15  C11 UNL     1      16.038  -6.726   0.798  0.00  0.00    +0.000 C 
ATOM     16  O1  UNL     1      15.197  -7.513   0.364  0.00  0.00    +0.000 OA
BRANCH  15  17
ATOM     17  C12 UNL     1      15.990  -6.188   2.221  0.00  0.00    +0.000 C 
BRANCH  17  18
ATOM     18  C13 UNL     1      15.070  -6.992   3.152  0.00  0.00    +0.000 C 
ATOM     19  C14 UNL     1      14.573  -6.101   4.292  0.00  0.00    +0.000 C 
ATOM     20  C15 UNL     1      15.789  -8.215   3.724  0.00  0.00    +0.000 C 
ENDBRANCH  17  18
ENDBRANCH  15  17
ENDBRANCH  14  15
ENDBRANCH   5   9
BRANCH   6  21
ATOM     21  C17 UNL     1      20.231  -6.220   1.754  0.00  0.00    +0.000 C 
ATOM     22  N2  UNL     1      19.729  -5.150   2.288  0.00  0.00    +0.000 NA
BRANCH  22  23
ATOM     23  O2  UNL     1      20.542  -4.058   1.967  0.00  0.00    +0.000 OA
ATOM     24  H   UNL     1      21.419  -4.016   2.295  0.00  0.00    +0.000 HD
ENDBRANCH  22  23
ENDBRANCH   6  21
TORSDOF 6
ENDMDL
MODEL 3
REMARK VINA RESULT:    -5.742      3.240      5.595
REMARK INTER + INTRA:          -8.792
REMARK INTER:                  -7.301
REMARK INTRA:                  -1.491
REMARK UNBOUND:                -1.204
REMARK  Name = laboratorio_evolutivo\Gen7_Mutante_7.pdb
REMARK  10 active torsions:
REMARK  status: ('A' for Active; 'I' for Inactive)
REMARK    1  A    between atoms: C1_1  and  C2_2
REMARK    2  A    between atoms: C4_5  and  C5_6
REMARK    3  A    between atoms: C8_9  and  C9_10
REMARK    4  A    between atoms: C10_11  and  C11_12
REMARK    5  A    between atoms: C11_12  and  C12_14
REMARK    6  A    between atoms: C12_14  and  C13_15
REMARK    7  A    between atoms: C13_15  and  C14_16
REMARK    8  A    between atoms: C13_15  and  C15_17
REMARK    9  A    between atoms: C16_18  and  C17_19
REMARK   10  A    between atoms: N2_20  and  O2_21
REMARK                            x       y       z     vdW  Elec       q    Type
REMARK                         _______ _______ _______ _____ _____    ______ ____
ROOT
ATOM      1  C1  UNL     1      -0.893  -0.056  13.551  0.00  0.00    +0.000 C 
ATOM      2  C2  UNL     1      -0.117   0.064  14.827  0.00  0.00    +0.000 C 
ATOM      3  N1  UNL     1      -0.124   1.265  15.450  0.00  0.00    +0.000 NA
ATOM      4  C3  UNL     1       0.600   1.389  16.589  0.00  0.00    +0.000 C 
ATOM      5  C4  UNL     1       1.377   0.382  17.155  0.00  0.00    +0.000 C 
ATOM      6  C16 UNL     1       1.370  -0.848  16.467  0.00  0.00    +0.000 C 
ATOM      7  C18 UNL     1       0.623  -1.006  15.299  0.00  0.00    +0.000 C 
ATOM      8  F1  UNL     1       0.641  -2.151  14.604  0.00  0.00    +0.000 F 
ENDROOT
BRANCH   5   9
ATOM      9  C5  UNL     1       2.149   0.598  18.439  0.00  0.00    +0.000 C 
ATOM     10  C6  UNL     1       2.618   2.019  18.786  0.00  0.00    +0.000 C 
ATOM     11  C7  UNL     1       3.148   1.854  20.203  0.00  0.00    +0.000 C 
ATOM     12  C8  UNL     1       2.134   0.927  20.884  0.00  0.00    +0.000 C 
ATOM     13  C9  UNL     1       2.790   0.016  21.915  0.00  0.00    +0.000 C 
ATOM     14  C10 UNL     1       1.458   0.130  19.740  0.00  0.00    +0.000 C 
BRANCH  14  15
ATOM     15  C11 UNL     1      -0.046   0.414  19.748  0.00  0.00    +0.000 C 
ATOM     16  O1  UNL     1      -0.483   1.550  19.932  0.00  0.00    +0.000 OA
BRANCH  15  17
ATOM     17  C12 UNL     1      -0.960  -0.793  19.587  0.00  0.00    +0.000 C 
BRANCH  17  18
ATOM     18  C13 UNL     1      -0.263  -2.133  19.862  0.00  0.00    +0.000 C 
ATOM     19  C14 UNL     1      -0.751  -3.189  18.869  0.00  0.00    +0.000 C 
ATOM     20  C15 UNL     1      -0.517  -2.610  21.294  0.00  0.00    +0.000 C 
ENDBRANCH  17  18
ENDBRANCH  15  17
ENDBRANCH  14  15
ENDBRANCH   5   9
BRANCH   6  21
ATOM     21  C17 UNL     1       2.167  -1.986  16.955  0.00  0.00    +0.000 C 
ATOM     22  N2  UNL     1       3.366  -2.231  16.526  0.00  0.00    +0.000 NA
BRANCH  22  23
ATOM     23  O2  UNL     1       3.847  -3.385  17.155  0.00  0.00    +0.000 OA
ATOM     24  H   UNL     1       3.480  -4.220  16.943  0.00  0.00    +0.000 HD
ENDBRANCH  22  23
ENDBRANCH   6  21
TORSDOF 6
ENDMDL
MODEL 4
REMARK VINA RESULT:    -5.710      2.279      2.833
REMARK INTER + INTRA:          -8.750
REMARK INTER:                  -7.279
REMARK INTRA:                  -1.471
REMARK UNBOUND:                -1.204
REMARK  Name = laboratorio_evolutivo\Gen7_Mutante_7.pdb
REMARK  10 active torsions:
REMARK  status: ('A' for Active; 'I' for Inactive)
REMARK    1  A    between atoms: C1_1  and  C2_2
REMARK    2  A    between atoms: C4_5  and  C5_6
REMARK    3  A    between atoms: C8_9  and  C9_10
REMARK    4  A    between atoms: C10_11  and  C11_12
REMARK    5  A    between atoms: C11_12  and  C12_14
REMARK    6  A    between atoms: C12_14  and  C13_15
REMARK    7  A    between atoms: C13_15  and  C14_16
REMARK    8  A    between atoms: C13_15  and  C15_17
REMARK    9  A    between atoms: C16_18  and  C17_19
REMARK   10  A    between atoms: N2_20  and  O2_21
REMARK                            x       y       z     vdW  Elec       q    Type
REMARK                         _______ _______ _______ _____ _____    ______ ____
ROOT
ATOM      1  C1  UNL     1       3.381   0.886  21.935  0.00  0.00    +0.000 C 
ATOM      2  C2  UNL     1       2.217   0.754  21.001  0.00  0.00    +0.000 C 
ATOM      3  N1  UNL     1       2.322   1.342  19.787  0.00  0.00    +0.000 NA
ATOM      4  C3  UNL     1       1.261   1.253  18.949  0.00  0.00    +0.000 C 
ATOM      5  C4  UNL     1       0.055   0.625  19.250  0.00  0.00    +0.000 C 
ATOM      6  C16 UNL     1      -0.020   0.040  20.530  0.00  0.00    +0.000 C 
ATOM      7  C18 UNL     1       1.063   0.107  21.407  0.00  0.00    +0.000 C 
ATOM      8  F1  UNL     1       0.996  -0.401  22.646  0.00  0.00    +0.000 F 
ENDROOT
BRANCH   5   9
ATOM      9  C5  UNL     1      -1.080   0.559  18.252  0.00  0.00    +0.000 C 
ATOM     10  C6  UNL     1      -1.137   1.608  17.132  0.00  0.00    +0.000 C 
ATOM     11  C7  UNL     1      -2.261   1.086  16.248  0.00  0.00    +0.000 C 
ATOM     12  C8  UNL     1      -2.038  -0.431  16.205  0.00  0.00    +0.000 C 
ATOM     13  C9  UNL     1      -3.350  -1.202  16.112  0.00  0.00    +0.000 C 
ATOM     14  C10 UNL     1      -1.243  -0.776  17.489  0.00  0.00    +0.000 C 
BRANCH  14  15
ATOM     15  C11 UNL     1       0.098  -1.404  17.099  0.00  0.00    +0.000 C 
ATOM     16  O1  UNL     1       0.763  -0.964  16.161  0.00  0.00    +0.000 OA
BRANCH  15  17
ATOM     17  C12 UNL     1       0.519  -2.636  17.887  0.00  0.00    +0.000 C 
BRANCH  17  18
ATOM     18  C13 UNL     1       1.940  -2.543  18.462  0.00  0.00    +0.000 C 
ATOM     19  C14 UNL     1       2.900  -3.383  17.618  0.00  0.00    +0.000 C 
ATOM     20  C15 UNL     1       1.983  -3.011  19.918  0.00  0.00    +0.000 C 
ENDBRANCH  17  18
ENDBRANCH  15  17
ENDBRANCH  14  15
ENDBRANCH   5   9
BRANCH   6  21
ATOM     21  C17 UNL     1      -1.249  -0.638  20.975  0.00  0.00    +0.000 C 
ATOM     22  N2  UNL     1      -1.291  -1.910  21.223  0.00  0.00    +0.000 NA
BRANCH  22  23
ATOM     23  O2  UNL     1      -2.593  -2.257  21.599  0.00  0.00    +0.000 OA
ATOM     24  H   UNL     1      -2.997  -3.020  21.236  0.00  0.00    +0.000 HD
ENDBRANCH  22  23
ENDBRANCH   6  21
TORSDOF 6
ENDMDL
MODEL 5
REMARK VINA RESULT:    -5.692      2.590      4.655
REMARK INTER + INTRA:          -8.726
REMARK INTER:                  -7.508
REMARK INTRA:                  -1.218
REMARK UNBOUND:                -1.204
REMARK  Name = laboratorio_evolutivo\Gen7_Mutante_7.pdb
REMARK  10 active torsions:
REMARK  status: ('A' for Active; 'I' for Inactive)
REMARK    1  A    between atoms: C1_1  and  C2_2
REMARK    2  A    between atoms: C4_5  and  C5_6
REMARK    3  A    between atoms: C8_9  and  C9_10
REMARK    4  A    between atoms: C10_11  and  C11_12
REMARK    5  A    between atoms: C11_12  and  C12_14
REMARK    6  A    between atoms: C12_14  and  C13_15
REMARK    7  A    between atoms: C13_15  and  C14_16
REMARK    8  A    between atoms: C13_15  and  C15_17
REMARK    9  A    between atoms: C16_18  and  C17_19
REMARK   10  A    between atoms: N2_20  and  O2_21
REMARK                            x       y       z     vdW  Elec       q    Type
REMARK                         _______ _______ _______ _____ _____    ______ ____
ROOT
ATOM      1  C1  UNL     1       2.554  -2.290  22.580  0.00  0.00    +0.000 C 
ATOM      2  C2  UNL     1       1.919  -1.529  21.456  0.00  0.00    +0.000 C 
ATOM      3  N1  UNL     1       1.328  -0.350  21.756  0.00  0.00    +0.000 NA
ATOM      4  C3  UNL     1       0.725   0.328  20.750  0.00  0.00    +0.000 C 
ATOM      5  C4  UNL     1       0.643  -0.108  19.429  0.00  0.00    +0.000 C 
ATOM      6  C16 UNL     1       1.257  -1.347  19.162  0.00  0.00    +0.000 C 
ATOM      7  C18 UNL     1       1.895  -2.060  20.178  0.00  0.00    +0.000 C 
ATOM      8  F1  UNL     1       2.443  -3.262  19.955  0.00  0.00    +0.000 F 
ENDROOT
BRANCH   5   9
ATOM      9  C5  UNL     1      -0.039   0.717  18.359  0.00  0.00    +0.000 C 
ATOM     10  C6  UNL     1      -1.135   1.706  18.779  0.00  0.00    +0.000 C 
ATOM     11  C7  UNL     1      -1.407   2.465  17.489  0.00  0.00    +0.000 C 
ATOM     12  C8  UNL     1      -0.018   2.691  16.880  0.00  0.00    +0.000 C 
ATOM     13  C9  UNL     1      -0.048   2.669  15.356  0.00  0.00    +0.000 C 
ATOM     14  C10 UNL     1       0.885   1.577  17.467  0.00  0.00    +0.000 C 
BRANCH  14  15
ATOM     15  C11 UNL     1       2.035   2.218  18.247  0.00  0.00    +0.000 C 
ATOM     16  O1  UNL     1       3.008   1.559  18.612  0.00  0.00    +0.000 OA
BRANCH  15  17
ATOM     17  C12 UNL     1       1.870   3.689  18.602  0.00  0.00    +0.000 C 
BRANCH  17  18
ATOM     18  C13 UNL     1       1.458   3.928  20.062  0.00  0.00    +0.000 C 
ATOM     19  C14 UNL     1       0.215   4.816  20.115  0.00  0.00    +0.000 C 
ATOM     20  C15 UNL     1       2.592   4.572  20.862  0.00  0.00    +0.000 C 
ENDBRANCH  17  18
ENDBRANCH  15  17
ENDBRANCH  14  15
ENDBRANCH   5   9
BRANCH   6  21
ATOM     21  C17 UNL     1       1.223  -1.926  17.807  0.00  0.00    +0.000 C 
ATOM     22  N2  UNL     1       2.238  -1.875  17.003  0.00  0.00    +0.000 NA
BRANCH  22  23
ATOM     23  O2  UNL     1       1.890  -2.484  15.793  0.00  0.00    +0.000 OA
ATOM     24  H   UNL     1       2.072  -2.051  14.982  0.00  0.00    +0.000 HD
ENDBRANCH  22  23
ENDBRANCH   6  21
TORSDOF 6
ENDMDL
MODEL 6
REMARK VINA RESULT:    -5.664      2.451      4.825
REMARK INTER + INTRA:          -8.689
REMARK INTER:                  -7.342
REMARK INTRA:                  -1.347
REMARK UNBOUND:                -1.204
REMARK  Name = laboratorio_evolutivo\Gen7_Mutante_7.pdb
REMARK  10 active torsions:
REMARK  status: ('A' for Active; 'I' for Inactive)
REMARK    1  A    between atoms: C1_1  and  C2_2
REMARK    2  A    between atoms: C4_5  and  C5_6
REMARK    3  A    between atoms: C8_9  and  C9_10
REMARK    4  A    between atoms: C10_11  and  C11_12
REMARK    5  A    between atoms: C11_12  and  C12_14
REMARK    6  A    between atoms: C12_14  and  C13_15
REMARK    7  A    between atoms: C13_15  and  C14_16
REMARK    8  A    between atoms: C13_15  and  C15_17
REMARK    9  A    between atoms: C16_18  and  C17_19
REMARK   10  A    between atoms: N2_20  and  O2_21
REMARK                            x       y       z     vdW  Elec       q    Type
REMARK                         _______ _______ _______ _____ _____    ______ ____
ROOT
ATOM      1  C1  UNL     1       2.239  -2.248  22.463  0.00  0.00    +0.000 C 
ATOM      2  C2  UNL     1       1.965  -1.909  21.030  0.00  0.00    +0.000 C 
ATOM      3  N1  UNL     1       1.768  -2.937  20.173  0.00  0.00    +0.000 NA
ATOM      4  C3  UNL     1       1.550  -2.638  18.869  0.00  0.00    +0.000 C 
ATOM      5  C4  UNL     1       1.539  -1.352  18.335  0.00  0.00    +0.000 C 
ATOM      6  C16 UNL     1       1.764  -0.311  19.257  0.00  0.00    +0.000 C 
ATOM      7  C18 UNL     1       1.979  -0.591  20.608  0.00  0.00    +0.000 C 
ATOM      8  F1  UNL     1       2.243   0.380  21.493  0.00  0.00    +0.000 F 
ENDROOT
BRANCH   5   9
ATOM      9  C5  UNL     1       1.275  -1.102  16.866  0.00  0.00    +0.000 C 
ATOM     10  C6  UNL     1       1.734  -2.154  15.846  0.00  0.00    +0.000 C 
ATOM     11  C7  UNL     1       1.114  -1.650  14.550  0.00  0.00    +0.000 C 
ATOM     12  C8  UNL     1      -0.287  -1.177  14.958  0.00  0.00    +0.000 C 
ATOM     13  C9  UNL     1      -0.752   0.018  14.133  0.00  0.00    +0.000 C 
ATOM     14  C10 UNL     1      -0.197  -0.849  16.469  0.00  0.00    +0.000 C 
BRANCH  14  15
ATOM     15  C11 UNL     1      -1.180  -1.738  17.237  0.00  0.00    +0.000 C 
ATOM     16  O1  UNL     1      -1.261  -2.946  17.013  0.00  0.00    +0.000 OA
BRANCH  15  17
ATOM     17  C12 UNL     1      -2.091  -1.032  18.231  0.00  0.00    +0.000 C 
BRANCH  17  18
ATOM     18  C13 UNL     1      -1.890  -1.492  19.683  0.00  0.00    +0.000 C 
ATOM     19  C14 UNL     1      -3.104  -2.298  20.148  0.00  0.00    +0.000 C 
ATOM     20  C15 UNL     1      -1.667  -0.302  20.618  0.00  0.00    +0.000 C 
ENDBRANCH  17  18
ENDBRANCH  15  17
ENDBRANCH  14  15
ENDBRANCH   5   9
BRANCH   6  21
ATOM     21  C17 UNL     1       1.796   1.093  18.813  0.00  0.00    +0.000 C 
ATOM     22  N2  UNL     1       2.903   1.714  18.551  0.00  0.00    +0.000 NA
BRANCH  22  23
ATOM     23  O2  UNL     1       2.608   3.031  18.181  0.00  0.00    +0.000 OA
ATOM     24  H   UNL     1       3.285   3.587  17.851  0.00  0.00    +0.000 HD
ENDBRANCH  22  23
ENDBRANCH   6  21
TORSDOF 6
ENDMDL
MODEL 7
REMARK VINA RESULT:    -5.509     24.054     27.019
REMARK INTER + INTRA:          -8.485
REMARK INTER:                  -7.496
REMARK INTRA:                  -0.989
REMARK UNBOUND:                -1.204
REMARK  Name = laboratorio_evolutivo\Gen7_Mutante_7.pdb
REMARK  10 active torsions:
REMARK  status: ('A' for Active; 'I' for Inactive)
REMARK    1  A    between atoms: C1_1  and  C2_2
REMARK    2  A    between atoms: C4_5  and  C5_6
REMARK    3  A    between atoms: C8_9  and  C9_10
REMARK    4  A    between atoms: C10_11  and  C11_12
REMARK    5  A    between atoms: C11_12  and  C12_14
REMARK    6  A    between atoms: C12_14  and  C13_15
REMARK    7  A    between atoms: C13_15  and  C14_16
REMARK    8  A    between atoms: C13_15  and  C15_17
REMARK    9  A    between atoms: C16_18  and  C17_19
REMARK   10  A    between atoms: N2_20  and  O2_21
REMARK                            x       y       z     vdW  Elec       q    Type
REMARK                         _______ _______ _______ _____ _____    ______ ____
ROOT
ATOM      1  C1  UNL     1      18.308 -11.621  -2.771  0.00  0.00    +0.000 C 
ATOM      2  C2  UNL     1      17.678 -10.478  -2.034  0.00  0.00    +0.000 C 
ATOM      3  N1  UNL     1      16.982 -10.769  -0.911  0.00  0.00    +0.000 NA
ATOM      4  C3  UNL     1      16.384  -9.743  -0.257  0.00  0.00    +0.000 C 
ATOM      5  C4  UNL     1      16.406  -8.412  -0.667  0.00  0.00    +0.000 C 
ATOM      6  C16 UNL     1      17.128  -8.155  -1.849  0.00  0.00    +0.000 C 
ATOM      7  C18 UNL     1      17.763  -9.191  -2.536  0.00  0.00    +0.000 C 
ATOM      8  F1  UNL     1      18.413  -8.976  -3.687  0.00  0.00    +0.000 F 
ENDROOT
BRANCH   5   9
ATOM      9  C5  UNL     1      15.721  -7.323   0.128  0.00  0.00    +0.000 C 
ATOM     10  C6  UNL     1      14.430  -7.664   0.886  0.00  0.00    +0.000 C 
ATOM     11  C7  UNL     1      14.183  -6.404   1.703  0.00  0.00    +0.000 C 
ATOM     12  C8  UNL     1      15.574  -5.997   2.204  0.00  0.00    +0.000 C 
ATOM     13  C9  UNL     1      15.725  -4.483   2.313  0.00  0.00    +0.000 C 
ATOM     14  C10 UNL     1      16.581  -6.617   1.202  0.00  0.00    +0.000 C 
BRANCH  14  15
ATOM     15  C11 UNL     1      17.506  -7.581   1.950  0.00  0.00    +0.000 C 
ATOM     16  O1  UNL     1      17.076  -8.332   2.826  0.00  0.00    +0.000 OA
BRANCH  15  17
ATOM     17  C12 UNL     1      18.985  -7.504   1.598  0.00  0.00    +0.000 C 
BRANCH  17  18
ATOM     18  C13 UNL     1      19.822  -6.728   2.625  0.00  0.00    +0.000 C 
ATOM     19  C14 UNL     1      20.274  -5.394   2.030  0.00  0.00    +0.000 C 
ATOM     20  C15 UNL     1      21.041  -7.537   3.075  0.00  0.00    +0.000 C 
ENDBRANCH  17  18
ENDBRANCH  15  17
ENDBRANCH  14  15
ENDBRANCH   5   9
BRANCH   6  21
ATOM     21  C17 UNL     1      17.211  -6.790  -2.398  0.00  0.00    +0.000 C 
ATOM     22  N2  UNL     1      18.305  -6.097  -2.374  0.00  0.00    +0.000 NA
BRANCH  22  23
ATOM     23  O2  UNL     1      18.060  -4.842  -2.941  0.00  0.00    +0.000 OA
ATOM     24  H   UNL     1      18.309  -4.064  -2.482  0.00  0.00    +0.000 HD
ENDBRANCH  22  23
ENDBRANCH   6  21
TORSDOF 6
ENDMDL
MODEL 8
REMARK VINA RESULT:    -5.504      2.850      5.462
REMARK INTER + INTRA:          -8.478
REMARK INTER:                  -7.357
REMARK INTRA:                  -1.120
REMARK UNBOUND:                -1.204
REMARK  Name = laboratorio_evolutivo\Gen7_Mutante_7.pdb
REMARK  10 active torsions:
REMARK  status: ('A' for Active; 'I' for Inactive)
REMARK    1  A    between atoms: C1_1  and  C2_2
REMARK    2  A    between atoms: C4_5  and  C5_6
REMARK    3  A    between atoms: C8_9  and  C9_10
REMARK    4  A    between atoms: C10_11  and  C11_12
REMARK    5  A    between atoms: C11_12  and  C12_14
REMARK    6  A    between atoms: C12_14  and  C13_15
REMARK    7  A    between atoms: C13_15  and  C14_16
REMARK    8  A    between atoms: C13_15  and  C15_17
REMARK    9  A    between atoms: C16_18  and  C17_19
REMARK   10  A    between atoms: N2_20  and  O2_21
REMARK                            x       y       z     vdW  Elec       q    Type
REMARK                         _______ _______ _______ _____ _____    ______ ____
ROOT
ATOM      1  C1  UNL     1       3.310  -4.490  18.374  0.00  0.00    +0.000 C 
ATOM      2  C2  UNL     1       2.415  -3.290  18.452  0.00  0.00    +0.000 C 
ATOM      3  N1  UNL     1       1.835  -3.022  19.643  0.00  0.00    +0.000 NA
ATOM      4  C3  UNL     1       1.000  -1.956  19.713  0.00  0.00    +0.000 C 
ATOM      5  C4  UNL     1       0.670  -1.129  18.642  0.00  0.00    +0.000 C 
ATOM      6  C16 UNL     1       1.283  -1.452  17.416  0.00  0.00    +0.000 C 
ATOM      7  C18 UNL     1       2.156  -2.537  17.320  0.00  0.00    +0.000 C 
ATOM      8  F1  UNL     1       2.711  -2.890  16.153  0.00  0.00    +0.000 F 
ENDROOT
BRANCH   5   9
ATOM      9  C5  UNL     1      -0.263   0.051  18.806  0.00  0.00    +0.000 C 
ATOM     10  C6  UNL     1      -1.092   0.162  20.094  0.00  0.00    +0.000 C 
ATOM     11  C7  UNL     1      -1.715   1.544  19.969  0.00  0.00    +0.000 C 
ATOM     12  C8  UNL     1      -0.586   2.421  19.412  0.00  0.00    +0.000 C 
ATOM     13  C9  UNL     1      -1.111   3.518  18.492  0.00  0.00    +0.000 C 
ATOM     14  C10 UNL     1       0.378   1.452  18.682  0.00  0.00    +0.000 C 
BRANCH  14  15
ATOM     15  C11 UNL     1       1.761   1.532  19.334  0.00  0.00    +0.000 C 
ATOM     16  O1  UNL     1       2.790   1.386  18.674  0.00  0.00    +0.000 OA
BRANCH  15  17
ATOM     17  C12 UNL     1       1.785   1.730  20.843  0.00  0.00    +0.000 C 
BRANCH  17  18
ATOM     18  C13 UNL     1       2.634   0.689  21.586  0.00  0.00    +0.000 C 
ATOM     19  C14 UNL     1       1.769  -0.065  22.598  0.00  0.00    +0.000 C 
ATOM     20  C15 UNL     1       3.817   1.344  22.301  0.00  0.00    +0.000 C 
ENDBRANCH  17  18
ENDBRANCH  15  17
ENDBRANCH  14  15
ENDBRANCH   5   9
BRANCH   6  21
ATOM     21  C17 UNL     1       1.001  -0.664  16.204  0.00  0.00    +0.000 C 
ATOM     22  N2  UNL     1       0.187  -1.073  15.282  0.00  0.00    +0.000 NA
BRANCH  22  23
ATOM     23  O2  UNL     1       0.149  -0.124  14.255  0.00  0.00    +0.000 OA
ATOM     24  H   UNL     1       0.933   0.098  13.794  0.00  0.00    +0.000 HD
ENDBRANCH  22  23
ENDBRANCH   6  21
TORSDOF 6
ENDMDL
MODEL 9
REMARK VINA RESULT:    -5.485      3.150      5.677
REMARK INTER + INTRA:          -8.452
REMARK INTER:                  -7.121
REMARK INTRA:                  -1.331
REMARK UNBOUND:                -1.204
REMARK  Name = laboratorio_evolutivo\Gen7_Mutante_7.pdb
REMARK  10 active torsions:
REMARK  status: ('A' for Active; 'I' for Inactive)
REMARK    1  A    between atoms: C1_1  and  C2_2
REMARK    2  A    between atoms: C4_5  and  C5_6
REMARK    3  A    between atoms: C8_9  and  C9_10
REMARK    4  A    between atoms: C10_11  and  C11_12
REMARK    5  A    between atoms: C11_12  and  C12_14
REMARK    6  A    between atoms: C12_14  and  C13_15
REMARK    7  A    between atoms: C13_15  and  C14_16
REMARK    8  A    between atoms: C13_15  and  C15_17
REMARK    9  A    between atoms: C16_18  and  C17_19
REMARK   10  A    between atoms: N2_20  and  O2_21
REMARK                            x       y       z     vdW  Elec       q    Type
REMARK                         _______ _______ _______ _____ _____    ______ ____
ROOT
ATOM      1  C1  UNL     1      -0.509  -0.466  13.577  0.00  0.00    +0.000 C 
ATOM      2  C2  UNL     1       0.038  -0.435  14.972  0.00  0.00    +0.000 C 
ATOM      3  N1  UNL     1      -0.495   0.464  15.830  0.00  0.00    +0.000 NA
ATOM      4  C3  UNL     1       0.016   0.519  17.085  0.00  0.00    +0.000 C 
ATOM      5  C4  UNL     1       1.070  -0.264  17.552  0.00  0.00    +0.000 C 
ATOM      6  C16 UNL     1       1.606  -1.176  16.623  0.00  0.00    +0.000 C 
ATOM      7  C18 UNL     1       1.090  -1.260  15.329  0.00  0.00    +0.000 C 
ATOM      8  F1  UNL     1       1.617  -2.086  14.415  0.00  0.00    +0.000 F 
ENDROOT
BRANCH   5   9
ATOM      9  C5  UNL     1       1.575  -0.151  18.974  0.00  0.00    +0.000 C 
ATOM     10  C6  UNL     1       1.298   1.143  19.754  0.00  0.00    +0.000 C 
ATOM     11  C7  UNL     1       1.762   0.788  21.159  0.00  0.00    +0.000 C 
ATOM     12  C8  UNL     1       1.268  -0.648  21.371  0.00  0.00    +0.000 C 
ATOM     13  C9  UNL     1       2.217  -1.458  22.247  0.00  0.00    +0.000 C 
ATOM     14  C10 UNL     1       1.114  -1.254  19.954  0.00  0.00    +0.000 C 
BRANCH  14  15
ATOM     15  C11 UNL     1      -0.345  -1.668  19.738  0.00  0.00    +0.000 C 
ATOM     16  O1  UNL     1      -0.654  -2.509  18.894  0.00  0.00    +0.000 OA
BRANCH  15  17
ATOM     17  C12 UNL     1      -1.384  -0.931  20.572  0.00  0.00    +0.000 C 
BRANCH  17  18
ATOM     18  C13 UNL     1      -2.451  -0.215  19.732  0.00  0.00    +0.000 C 
ATOM     19  C14 UNL     1      -2.419   1.287  20.016  0.00  0.00    +0.000 C 
ATOM     20  C15 UNL     1      -3.849  -0.768  20.020  0.00  0.00    +0.000 C 
ENDBRANCH  17  18
ENDBRANCH  15  17
ENDBRANCH  14  15
ENDBRANCH   5   9
BRANCH   6  21
ATOM     21  C17 UNL     1       2.736  -2.046  16.990  0.00  0.00    +0.000 C 
ATOM     22  N2  UNL     1       2.576  -3.286  17.334  0.00  0.00    +0.000 NA
BRANCH  22  23
ATOM     23  O2  UNL     1       3.824  -3.835  17.647  0.00  0.00    +0.000 OA
ATOM     24  H   UNL     1       4.416  -3.366  18.202  0.00  0.00    +0.000 HD
ENDBRANCH  22  23
ENDBRANCH   6  21
TORSDOF 6
ENDMDL
