REMARK  Name = laboratorio_evolutivo\Gen7_Mutante_2.pdb
REMARK  10 active torsions:
REMARK  status: ('A' for Active; 'I' for Inactive)
REMARK    1  A    between atoms: C1_1  and  C2_2
REMARK    2  A    between atoms: C2_2  and  C3_4
REMARK    3  A    between atoms: C5_6  and  C6_7
REMARK    4  A    between atoms: C8_10  and  C9_11
REMARK    5  A    between atoms: C12_14  and  C13_15
REMARK    6  A    between atoms: C14_16  and  C15_17
REMARK    7  A    between atoms: C15_17  and  C16_19
REMARK    8  A    between atoms: C16_19  and  C17_20
REMARK    9  A    between atoms: C17_20  and  C18_21
REMARK   10  A    between atoms: C17_20  and  C19_22
REMARK                            x       y       z     vdW  Elec       q    Type
REMARK                         _______ _______ _______ _____ _____    ______ ____
ROOT
ATOM      1  C9  UNL     1       0.757  -0.318   1.134  0.00  0.00    +0.000 C 
ATOM      2  C10 UNL     1       0.780  -0.761   2.612  0.00  0.00    +0.000 C 
ATOM      3  C11 UNL     1      -0.664  -0.601   3.072  0.00  0.00    +0.000 C 
ATOM      4  C12 UNL     1      -1.074   0.720   2.426  0.00  0.00    +0.000 C 
ATOM      5  C13 UNL     1      -2.568   0.994   2.477  0.00  0.00    +0.000 C 
ATOM      6  C14 UNL     1      -0.406   0.703   1.035  0.00  0.00    +0.000 C 
ENDROOT
BRANCH   1  13
ATOM      7  C3  UNL     1       2.397   0.114  -0.798  0.00  0.00    +0.000 C 
ATOM      8  C4  UNL     1       3.575   0.684  -1.294  0.00  0.00    +0.000 C 
ATOM      9  C5  UNL     1       4.386   1.395  -0.426  0.00  0.00    +0.000 C 
ATOM     10  C6  UNL     1       5.661   2.016  -0.912  0.00  0.00    +0.000 C 
ATOM     11  N1  UNL     1       4.071   1.559   0.874  0.00  0.00    +0.000 NA
ATOM     12  C7  UNL     1       2.928   0.991   1.328  0.00  0.00    +0.000 C 
ATOM     13  C8  UNL     1       2.048   0.235   0.559  0.00  0.00    +0.000 C 
BRANCH   7  15
ATOM     14  C1  UNL     1       1.134   0.106  -3.022  0.00  0.00    +0.000 C 
ATOM     15  C2  UNL     1       1.552  -0.620  -1.770  0.00  0.00    +0.000 C 
ATOM     16  O1  UNL     1       1.240  -1.786  -1.553  0.00  0.00    +0.000 OA
ENDBRANCH   7  15
ENDBRANCH   1  13
BRANCH   6  17
ATOM     17  C15 UNL     1      -1.327   0.428  -0.158  0.00  0.00    +0.000 C 
ATOM     18  O2  UNL     1      -1.487   1.314  -1.003  0.00  0.00    +0.000 OA
BRANCH  17  19
ATOM     19  C16 UNL     1      -1.983  -0.940  -0.306  0.00  0.00    +0.000 C 
BRANCH  19  20
ATOM     20  C17 UNL     1      -3.311  -0.891  -1.081  0.00  0.00    +0.000 C 
ATOM     21  C18 UNL     1      -3.080  -0.900  -2.595  0.00  0.00    +0.000 C 
ATOM     22  C19 UNL     1      -4.192  -2.083  -0.695  0.00  0.00    +0.000 C 
ENDBRANCH  19  20
ENDBRANCH  17  19
ENDBRANCH   6  17
TORSDOF 5
