MODEL 1
REMARK VINA RESULT:    -5.896      0.000      0.000
REMARK INTER + INTRA:          -9.364
REMARK INTER:                  -7.792
REMARK INTRA:                  -1.572
REMARK UNBOUND:                -1.572
REMARK  Name = laboratorio_evolutivo\Gen7_Mutante_3.pdb
REMARK  11 active torsions:
REMARK  status: ('A' for Active; 'I' for Inactive)
REMARK    1  A    between atoms: C1_1  and  C2_2
REMARK    2  A    between atoms: C4_5  and  C5_6
REMARK    3  A    between atoms: C8_9  and  C9_10
REMARK    4  A    between atoms: C10_11  and  C11_12
REMARK    5  A    between atoms: C11_12  and  C12_14
REMARK    6  A    between atoms: C12_14  and  C13_15
REMARK    7  A    between atoms: C13_15  and  C14_16
REMARK    8  A    between atoms: C13_15  and  C15_17
REMARK    9  A    between atoms: C16_18  and  C17_19
REMARK   10  A    between atoms: N2_20  and  O2_21
REMARK   11  A    between atoms: C18_22  and  C19_23
REMARK                            x       y       z     vdW  Elec       q    Type
REMARK                         _______ _______ _______ _____ _____    ______ ____
ROOT
ATOM      1  C1  UNL     1      12.634  -5.383  -0.423  0.00  0.00    +0.000 C 
ATOM      2  C2  UNL     1      13.953  -5.568   0.271  0.00  0.00    +0.000 C 
ATOM      3  N1  UNL     1      14.971  -4.845  -0.241  0.00  0.00    +0.000 NA
ATOM      4  C3  UNL     1      16.192  -4.962   0.324  0.00  0.00    +0.000 C 
ATOM      5  C4  UNL     1      16.497  -5.781   1.403  0.00  0.00    +0.000 C 
ATOM      6  C16 UNL     1      15.416  -6.530   1.920  0.00  0.00    +0.000 C 
ATOM      7  C18 UNL     1      14.114  -6.416   1.370  0.00  0.00    +0.000 C 
ATOM      8  C19 UNL     1      12.948  -7.195   1.920  0.00  0.00    +0.000 C 
ENDROOT
BRANCH   5   9
ATOM      9  C5  UNL     1      17.913  -5.859   1.937  0.00  0.00    +0.000 C 
ATOM     10  C6  UNL     1      18.854  -4.666   1.698  0.00  0.00    +0.000 C 
ATOM     11  C7  UNL     1      20.187  -5.195   2.206  0.00  0.00    +0.000 C 
ATOM     12  C8  UNL     1      20.236  -6.648   1.714  0.00  0.00    +0.000 C 
ATOM     13  C9  UNL     1      20.931  -7.564   2.716  0.00  0.00    +0.000 C 
ATOM     14  C10 UNL     1      18.763  -7.060   1.463  0.00  0.00    +0.000 C 
BRANCH  14  15
ATOM     15  C11 UNL     1      18.561  -7.372  -0.022  0.00  0.00    +0.000 C 
ATOM     16  O1  UNL     1      18.983  -6.619  -0.900  0.00  0.00    +0.000 OA
BRANCH  15  17
ATOM     17  C12 UNL     1      17.794  -8.648  -0.342  0.00  0.00    +0.000 C 
BRANCH  17  18
ATOM     18  C13 UNL     1      16.603  -8.432  -1.289  0.00  0.00    +0.000 C 
ATOM     19  C14 UNL     1      16.913  -8.948  -2.698  0.00  0.00    +0.000 C 
ATOM     20  C15 UNL     1      15.362  -9.140  -0.742  0.00  0.00    +0.000 C 
ENDBRANCH  17  18
ENDBRANCH  15  17
ENDBRANCH  14  15
ENDBRANCH   5   9
BRANCH   6  21
ATOM     21  C17 UNL     1      15.592  -7.504   3.027  0.00  0.00    +0.000 C 
ATOM     22  N2  UNL     1      15.989  -8.724   2.849  0.00  0.00    +0.000 NA
BRANCH  22  23
ATOM     23  O2  UNL     1      16.046  -9.368   4.090  0.00  0.00    +0.000 OA
ATOM     24  H   UNL     1      15.279  -9.424   4.624  0.00  0.00    +0.000 HD
ENDBRANCH  22  23
ENDBRANCH   6  21
TORSDOF 6
ENDMDL
MODEL 2
REMARK VINA RESULT:    -5.618     24.014     26.816
REMARK INTER + INTRA:          -8.996
REMARK INTER:                  -7.676
REMARK INTRA:                  -1.320
REMARK UNBOUND:                -1.572
REMARK  Name = laboratorio_evolutivo\Gen7_Mutante_3.pdb
REMARK  11 active torsions:
REMARK  status: ('A' for Active; 'I' for Inactive)
REMARK    1  A    between atoms: C1_1  and  C2_2
REMARK    2  A    between atoms: C4_5  and  C5_6
REMARK    3  A    between atoms: C8_9  and  C9_10
REMARK    4  A    between atoms: C10_11  and  C11_12
REMARK    5  A    between atoms: C11_12  and  C12_14
REMARK    6  A    between atoms: C12_14  and  C13_15
REMARK    7  A    between atoms: C13_15  and  C14_16
REMARK    8  A    between atoms: C13_15  and  C15_17
REMARK    9  A    between atoms: C16_18  and  C17_19
REMARK   10  A    between atoms: N2_20  and  O2_21
REMARK   11  A    between atoms: C18_22  and  C19_23
REMARK                            x       y       z     vdW  Elec       q    Type
REMARK                         _______ _______ _______ _____ _____    ______ ____
ROOT
ATOM      1  C1  UNL     1      -2.140   5.341  21.171  0.00  0.00    +0.000 C 
ATOM      2  C2  UNL     1      -1.680   4.118  20.430  0.00  0.00    +0.000 C 
ATOM      3  N1  UNL     1      -2.569   3.102  20.401  0.00  0.00    +0.000 NA
ATOM      4  C3  UNL     1      -2.227   1.964  19.760  0.00  0.00    +0.000 C 
ATOM      5  C4  UNL     1      -1.015   1.744  19.119  0.00  0.00    +0.000 C 
ATOM      6  C16 UNL     1      -0.100   2.820  19.163  0.00  0.00    +0.000 C 
ATOM      7  C18 UNL     1      -0.432   4.039  19.807  0.00  0.00    +0.000 C 
ATOM      8  C19 UNL     1       0.525   5.201  19.849  0.00  0.00    +0.000 C 
ENDROOT
BRANCH   5   9
ATOM      9  C5  UNL     1      -0.723   0.412  18.457  0.00  0.00    +0.000 C 
ATOM     10  C6  UNL     1      -1.909  -0.453  17.996  0.00  0.00    +0.000 C 
ATOM     11  C7  UNL     1      -1.224  -1.743  17.567  0.00  0.00    +0.000 C 
ATOM     12  C8  UNL     1      -0.144  -1.975  18.632  0.00  0.00    +0.000 C 
ATOM     13  C9  UNL     1       1.114  -2.599  18.037  0.00  0.00    +0.000 C 
ATOM     14  C10 UNL     1       0.131  -0.589  19.268  0.00  0.00    +0.000 C 
BRANCH  14  15
ATOM     15  C11 UNL     1      -0.250  -0.618  20.750  0.00  0.00    +0.000 C 
ATOM     16  O1  UNL     1      -1.309  -1.114  21.132  0.00  0.00    +0.000 OA
BRANCH  15  17
ATOM     17  C12 UNL     1       0.745   0.020  21.711  0.00  0.00    +0.000 C 
BRANCH  17  18
ATOM     18  C13 UNL     1       2.180  -0.504  21.554  0.00  0.00    +0.000 C 
ATOM     19  C14 UNL     1       3.191   0.435  22.218  0.00  0.00    +0.000 C 
ATOM     20  C15 UNL     1       2.299  -1.903  22.162  0.00  0.00    +0.000 C 
ENDBRANCH  17  18
ENDBRANCH  15  17
ENDBRANCH  14  15
ENDBRANCH   5   9
BRANCH   6  21
ATOM     21  C17 UNL     1       1.264   2.717  18.587  0.00  0.00    +0.000 C 
ATOM     22  N2  UNL     1       2.289   2.281  19.247  0.00  0.00    +0.000 NA
BRANCH  22  23
ATOM     23  O2  UNL     1       3.414   2.315  18.415  0.00  0.00    +0.000 OA
ATOM     24  H   UNL     1       3.307   2.370  17.486  0.00  0.00    +0.000 HD
ENDBRANCH  22  23
ENDBRANCH   6  21
TORSDOF 6
ENDMDL
MODEL 3
REMARK VINA RESULT:    -5.547     20.970     23.888
REMARK INTER + INTRA:          -8.903
REMARK INTER:                  -7.309
REMARK INTRA:                  -1.594
REMARK UNBOUND:                -1.572
REMARK  Name = laboratorio_evolutivo\Gen7_Mutante_3.pdb
REMARK  11 active torsions:
REMARK  status: ('A' for Active; 'I' for Inactive)
REMARK    1  A    between atoms: C1_1  and  C2_2
REMARK    2  A    between atoms: C4_5  and  C5_6
REMARK    3  A    between atoms: C8_9  and  C9_10
REMARK    4  A    between atoms: C10_11  and  C11_12
REMARK    5  A    between atoms: C11_12  and  C12_14
REMARK    6  A    between atoms: C12_14  and  C13_15
REMARK    7  A    between atoms: C13_15  and  C14_16
REMARK    8  A    between atoms: C13_15  and  C15_17
REMARK    9  A    between atoms: C16_18  and  C17_19
REMARK   10  A    between atoms: N2_20  and  O2_21
REMARK   11  A    between atoms: C18_22  and  C19_23
REMARK                            x       y       z     vdW  Elec       q    Type
REMARK                         _______ _______ _______ _____ _____    ______ ____
ROOT
ATOM      1  C1  UNL     1       0.652  -0.211  21.753  0.00  0.00    +0.000 C 
ATOM      2  C2  UNL     1       1.061  -0.914  20.490  0.00  0.00    +0.000 C 
ATOM      3  N1  UNL     1       1.589  -0.115  19.539  0.00  0.00    +0.000 NA
ATOM      4  C3  UNL     1       1.975  -0.671  18.371  0.00  0.00    +0.000 C 
ATOM      5  C4  UNL     1       1.868  -2.019  18.055  0.00  0.00    +0.000 C 
ATOM      6  C16 UNL     1       1.311  -2.836  19.065  0.00  0.00    +0.000 C 
ATOM      7  C18 UNL     1       0.916  -2.293  20.314  0.00  0.00    +0.000 C 
ATOM      8  C19 UNL     1       0.335  -3.152  21.406  0.00  0.00    +0.000 C 
ENDROOT
BRANCH   5   9
ATOM      9  C5  UNL     1       2.304  -2.530  16.697  0.00  0.00    +0.000 C 
ATOM     10  C6  UNL     1       3.384  -1.748  15.931  0.00  0.00    +0.000 C 
ATOM     11  C7  UNL     1       3.404  -2.456  14.583  0.00  0.00    +0.000 C 
ATOM     12  C8  UNL     1       1.926  -2.728  14.271  0.00  0.00    +0.000 C 
ATOM     13  C9  UNL     1       1.736  -4.051  13.537  0.00  0.00    +0.000 C 
ATOM     14  C10 UNL     1       1.192  -2.701  15.636  0.00  0.00    +0.000 C 
BRANCH  14  15
ATOM     15  C11 UNL     1       0.182  -1.552  15.655  0.00  0.00    +0.000 C 
ATOM     16  O1  UNL     1       0.461  -0.443  15.198  0.00  0.00    +0.000 OA
BRANCH  15  17
ATOM     17  C12 UNL     1      -1.169  -1.855  16.289  0.00  0.00    +0.000 C 
BRANCH  17  18
ATOM     18  C13 UNL     1      -1.586  -0.846  17.370  0.00  0.00    +0.000 C 
ATOM     19  C14 UNL     1      -2.587   0.175  16.821  0.00  0.00    +0.000 C 
ATOM     20  C15 UNL     1      -2.198  -1.578  18.565  0.00  0.00    +0.000 C 
ENDBRANCH  17  18
ENDBRANCH  15  17
ENDBRANCH  14  15
ENDBRANCH   5   9
BRANCH   6  21
ATOM     21  C17 UNL     1       1.065  -4.285  18.857  0.00  0.00    +0.000 C 
ATOM     22  N2  UNL     1      -0.018  -4.758  18.328  0.00  0.00    +0.000 NA
BRANCH  22  23
ATOM     23  O2  UNL     1       0.072  -6.154  18.281  0.00  0.00    +0.000 OA
ATOM     24  H   UNL     1       0.864  -6.563  17.991  0.00  0.00    +0.000 HD
ENDBRANCH  22  23
ENDBRANCH   6  21
TORSDOF 6
ENDMDL
MODEL 4
REMARK VINA RESULT:    -5.419      1.987      4.934
REMARK INTER + INTRA:          -8.734
REMARK INTER:                  -7.245
REMARK INTRA:                  -1.489
REMARK UNBOUND:                -1.572
REMARK  Name = laboratorio_evolutivo\Gen7_Mutante_3.pdb
REMARK  11 active torsions:
REMARK  status: ('A' for Active; 'I' for Inactive)
REMARK    1  A    between atoms: C1_1  and  C2_2
REMARK    2  A    between atoms: C4_5  and  C5_6
REMARK    3  A    between atoms: C8_9  and  C9_10
REMARK    4  A    between atoms: C10_11  and  C11_12
REMARK    5  A    between atoms: C11_12  and  C12_14
REMARK    6  A    between atoms: C12_14  and  C13_15
REMARK    7  A    between atoms: C13_15  and  C14_16
REMARK    8  A    between atoms: C13_15  and  C15_17
REMARK    9  A    between atoms: C16_18  and  C17_19
REMARK   10  A    between atoms: N2_20  and  O2_21
REMARK   11  A    between atoms: C18_22  and  C19_23
REMARK                            x       y       z     vdW  Elec       q    Type
REMARK                         _______ _______ _______ _____ _____    ______ ____
ROOT
ATOM      1  C1  UNL     1      16.127  -2.903   1.788  0.00  0.00    +0.000 C 
ATOM      2  C2  UNL     1      16.131  -4.311   1.264  0.00  0.00    +0.000 C 
ATOM      3  N1  UNL     1      15.720  -5.247   2.145  0.00  0.00    +0.000 NA
ATOM      4  C3  UNL     1      15.702  -6.539   1.751  0.00  0.00    +0.000 C 
ATOM      5  C4  UNL     1      16.082  -6.995   0.495  0.00  0.00    +0.000 C 
ATOM      6  C16 UNL     1      16.510  -5.997  -0.409  0.00  0.00    +0.000 C 
ATOM      7  C18 UNL     1      16.520  -4.628  -0.040  0.00  0.00    +0.000 C 
ATOM      8  C19 UNL     1      16.958  -3.551  -0.997  0.00  0.00    +0.000 C 
ENDROOT
BRANCH   5   9
ATOM      9  C5  UNL     1      16.053  -8.475   0.171  0.00  0.00    +0.000 C 
ATOM     10  C6  UNL     1      15.072  -9.376   0.942  0.00  0.00    +0.000 C 
ATOM     11  C7  UNL     1      15.470 -10.768   0.471  0.00  0.00    +0.000 C 
ATOM     12  C8  UNL     1      17.004 -10.733   0.425  0.00  0.00    +0.000 C 
ATOM     13  C9  UNL     1      17.556 -11.567  -0.727  0.00  0.00    +0.000 C 
ATOM     14  C10 UNL     1      17.391  -9.237   0.307  0.00  0.00    +0.000 C 
BRANCH  14  15
ATOM     15  C11 UNL     1      18.185  -8.812   1.545  0.00  0.00    +0.000 C 
ATOM     16  O1  UNL     1      17.920  -9.255   2.662  0.00  0.00    +0.000 OA
BRANCH  15  17
ATOM     17  C12 UNL     1      19.297  -7.798   1.314  0.00  0.00    +0.000 C 
BRANCH  17  18
ATOM     18  C13 UNL     1      19.455  -6.782   2.455  0.00  0.00    +0.000 C 
ATOM     19  C14 UNL     1      20.632  -7.145   3.364  0.00  0.00    +0.000 C 
ATOM     20  C15 UNL     1      19.659  -5.377   1.884  0.00  0.00    +0.000 C 
ENDBRANCH  17  18
ENDBRANCH  15  17
ENDBRANCH  14  15
ENDBRANCH   5   9
BRANCH   6  21
ATOM     21  C17 UNL     1      17.014  -6.329  -1.766  0.00  0.00    +0.000 C 
ATOM     22  N2  UNL     1      18.259  -6.572  -2.026  0.00  0.00    +0.000 NA
BRANCH  22  23
ATOM     23  O2  UNL     1      18.392  -6.846  -3.392  0.00  0.00    +0.000 OA
ATOM     24  H   UNL     1      18.786  -6.213  -3.960  0.00  0.00    +0.000 HD
ENDBRANCH  22  23
ENDBRANCH   6  21
TORSDOF 6
ENDMDL
MODEL 5
REMARK VINA RESULT:    -5.402      3.158      5.077
REMARK INTER + INTRA:          -8.711
REMARK INTER:                  -7.279
REMARK INTRA:                  -1.433
REMARK UNBOUND:                -1.572
REMARK  Name = laboratorio_evolutivo\Gen7_Mutante_3.pdb
REMARK  11 active torsions:
REMARK  status: ('A' for Active; 'I' for Inactive)
REMARK    1  A    between atoms: C1_1  and  C2_2
REMARK    2  A    between atoms: C4_5  and  C5_6
REMARK    3  A    between atoms: C8_9  and  C9_10
REMARK    4  A    between atoms: C10_11  and  C11_12
REMARK    5  A    between atoms: C11_12  and  C12_14
REMARK    6  A    between atoms: C12_14  and  C13_15
REMARK    7  A    between atoms: C13_15  and  C14_16
REMARK    8  A    between atoms: C13_15  and  C15_17
REMARK    9  A    between atoms: C16_18  and  C17_19
REMARK   10  A    between atoms: N2_20  and  O2_21
REMARK   11  A    between atoms: C18_22  and  C19_23
REMARK                            x       y       z     vdW  Elec       q    Type
REMARK                         _______ _______ _______ _____ _____    ______ ____
ROOT
ATOM      1  C1  UNL     1      11.590  -2.358  -1.282  0.00  0.00    +0.000 C 
ATOM      2  C2  UNL     1      13.014  -2.657  -0.910  0.00  0.00    +0.000 C 
ATOM      3  N1  UNL     1      13.463  -3.867  -1.306  0.00  0.00    +0.000 NA
ATOM      4  C3  UNL     1      14.732  -4.214  -1.003  0.00  0.00    +0.000 C 
ATOM      5  C4  UNL     1      15.631  -3.420  -0.301  0.00  0.00    +0.000 C 
ATOM      6  C16 UNL     1      15.137  -2.159   0.104  0.00  0.00    +0.000 C 
ATOM      7  C18 UNL     1      13.818  -1.749  -0.216  0.00  0.00    +0.000 C 
ATOM      8  C19 UNL     1      13.283  -0.403   0.194  0.00  0.00    +0.000 C 
ENDROOT
BRANCH   5   9
ATOM      9  C5  UNL     1      17.024  -3.924   0.013  0.00  0.00    +0.000 C 
ATOM     10  C6  UNL     1      17.614  -5.044  -0.863  0.00  0.00    +0.000 C 
ATOM     11  C7  UNL     1      18.906  -5.382  -0.133  0.00  0.00    +0.000 C 
ATOM     12  C8  UNL     1      18.528  -5.340   1.354  0.00  0.00    +0.000 C 
ATOM     13  C9  UNL     1      19.669  -4.807   2.215  0.00  0.00    +0.000 C 
ATOM     14  C10 UNL     1      17.259  -4.456   1.445  0.00  0.00    +0.000 C 
BRANCH  14  15
ATOM     15  C11 UNL     1      16.084  -5.292   1.960  0.00  0.00    +0.000 C 
ATOM     16  O1  UNL     1      15.798  -6.377   1.455  0.00  0.00    +0.000 OA
BRANCH  15  17
ATOM     17  C12 UNL     1      15.285  -4.692   3.109  0.00  0.00    +0.000 C 
BRANCH  17  18
ATOM     18  C13 UNL     1      13.764  -4.830   2.943  0.00  0.00    +0.000 C 
ATOM     19  C14 UNL     1      13.149  -5.627   4.097  0.00  0.00    +0.000 C 
ATOM     20  C15 UNL     1      13.116  -3.446   2.869  0.00  0.00    +0.000 C 
ENDBRANCH  17  18
ENDBRANCH  15  17
ENDBRANCH  14  15
ENDBRANCH   5   9
BRANCH   6  21
ATOM     21  C17 UNL     1      15.949  -1.223   0.922  0.00  0.00    +0.000 C 
ATOM     22  N2  UNL     1      16.037  -1.292   2.212  0.00  0.00    +0.000 NA
BRANCH  22  23
ATOM     23  O2  UNL     1      16.875  -0.267   2.665  0.00  0.00    +0.000 OA
ATOM     24  H   UNL     1      17.372   0.238   2.052  0.00  0.00    +0.000 HD
ENDBRANCH  22  23
ENDBRANCH   6  21
TORSDOF 6
ENDMDL
MODEL 6
REMARK VINA RESULT:    -5.372     23.509     26.069
REMARK INTER + INTRA:          -8.671
REMARK INTER:                  -7.728
REMARK INTRA:                  -0.943
REMARK UNBOUND:                -1.572
REMARK  Name = laboratorio_evolutivo\Gen7_Mutante_3.pdb
REMARK  11 active torsions:
REMARK  status: ('A' for Active; 'I' for Inactive)
REMARK    1  A    between atoms: C1_1  and  C2_2
REMARK    2  A    between atoms: C4_5  and  C5_6
REMARK    3  A    between atoms: C8_9  and  C9_10
REMARK    4  A    between atoms: C10_11  and  C11_12
REMARK    5  A    between atoms: C11_12  and  C12_14
REMARK    6  A    between atoms: C12_14  and  C13_15
REMARK    7  A    between atoms: C13_15  and  C14_16
REMARK    8  A    between atoms: C13_15  and  C15_17
REMARK    9  A    between atoms: C16_18  and  C17_19
REMARK   10  A    between atoms: N2_20  and  O2_21
REMARK   11  A    between atoms: C18_22  and  C19_23
REMARK                            x       y       z     vdW  Elec       q    Type
REMARK                         _______ _______ _______ _____ _____    ______ ____
ROOT
ATOM      1  C1  UNL     1      -3.144   2.441  16.763  0.00  0.00    +0.000 C 
ATOM      2  C2  UNL     1      -2.326   1.814  17.855  0.00  0.00    +0.000 C 
ATOM      3  N1  UNL     1      -1.034   2.202  17.893  0.00  0.00    +0.000 NA
ATOM      4  C3  UNL     1      -0.230   1.677  18.843  0.00  0.00    +0.000 C 
ATOM      5  C4  UNL     1      -0.626   0.750  19.799  0.00  0.00    +0.000 C 
ATOM      6  C16 UNL     1      -1.982   0.358  19.739  0.00  0.00    +0.000 C 
ATOM      7  C18 UNL     1      -2.862   0.905  18.771  0.00  0.00    +0.000 C 
ATOM      8  C19 UNL     1      -4.314   0.509  18.704  0.00  0.00    +0.000 C 
ENDROOT
BRANCH   5   9
ATOM      9  C5  UNL     1       0.371   0.202  20.800  0.00  0.00    +0.000 C 
ATOM     10  C6  UNL     1       1.627   1.032  21.115  0.00  0.00    +0.000 C 
ATOM     11  C7  UNL     1       2.433   0.084  21.992  0.00  0.00    +0.000 C 
ATOM     12  C8  UNL     1       2.256  -1.291  21.334  0.00  0.00    +0.000 C 
ATOM     13  C9  UNL     1       2.197  -2.412  22.367  0.00  0.00    +0.000 C 
ATOM     14  C10 UNL     1       0.956  -1.196  20.495  0.00  0.00    +0.000 C 
BRANCH  14  15
ATOM     15  C11 UNL     1       1.286  -1.383  19.012  0.00  0.00    +0.000 C 
ATOM     16  O1  UNL     1       2.006  -0.587  18.409  0.00  0.00    +0.000 OA
BRANCH  15  17
ATOM     17  C12 UNL     1       0.654  -2.589  18.330  0.00  0.00    +0.000 C 
BRANCH  17  18
ATOM     18  C13 UNL     1       1.153  -3.937  18.871  0.00  0.00    +0.000 C 
ATOM     19  C14 UNL     1       0.323  -5.099  18.318  0.00  0.00    +0.000 C 
ATOM     20  C15 UNL     1       2.626  -4.136  18.508  0.00  0.00    +0.000 C 
ENDBRANCH  17  18
ENDBRANCH  15  17
ENDBRANCH  14  15
ENDBRANCH   5   9
BRANCH   6  21
ATOM     21  C17 UNL     1      -2.542  -0.676  20.645  0.00  0.00    +0.000 C 
ATOM     22  N2  UNL     1      -2.537  -1.942  20.376  0.00  0.00    +0.000 NA
BRANCH  22  23
ATOM     23  O2  UNL     1      -3.139  -2.634  21.433  0.00  0.00    +0.000 OA
ATOM     24  H   UNL     1      -3.070  -3.567  21.482  0.00  0.00    +0.000 HD
ENDBRANCH  22  23
ENDBRANCH   6  21
TORSDOF 6
ENDMDL
MODEL 7
REMARK VINA RESULT:    -5.324      2.622      5.772
REMARK INTER + INTRA:          -8.608
REMARK INTER:                  -7.370
REMARK INTRA:                  -1.238
REMARK UNBOUND:                -1.572
REMARK  Name = laboratorio_evolutivo\Gen7_Mutante_3.pdb
REMARK  11 active torsions:
REMARK  status: ('A' for Active; 'I' for Inactive)
REMARK    1  A    between atoms: C1_1  and  C2_2
REMARK    2  A    between atoms: C4_5  and  C5_6
REMARK    3  A    between atoms: C8_9  and  C9_10
REMARK    4  A    between atoms: C10_11  and  C11_12
REMARK    5  A    between atoms: C11_12  and  C12_14
REMARK    6  A    between atoms: C12_14  and  C13_15
REMARK    7  A    between atoms: C13_15  and  C14_16
REMARK    8  A    between atoms: C13_15  and  C15_17
REMARK    9  A    between atoms: C16_18  and  C17_19
REMARK   10  A    between atoms: N2_20  and  O2_21
REMARK   11  A    between atoms: C18_22  and  C19_23
REMARK                            x       y       z     vdW  Elec       q    Type
REMARK                         _______ _______ _______ _____ _____    ______ ____
ROOT
ATOM      1  C1  UNL     1      20.668 -12.122   4.065  0.00  0.00    +0.000 C 
ATOM      2  C2  UNL     1      19.783 -10.961   3.711  0.00  0.00    +0.000 C 
ATOM      3  N1  UNL     1      18.475 -11.264   3.574  0.00  0.00    +0.000 NA
ATOM      4  C3  UNL     1      17.614 -10.275   3.248  0.00  0.00    +0.000 C 
ATOM      5  C4  UNL     1      17.968  -8.949   3.034  0.00  0.00    +0.000 C 
ATOM      6  C16 UNL     1      19.343  -8.657   3.181  0.00  0.00    +0.000 C 
ATOM      7  C18 UNL     1      20.272  -9.663   3.544  0.00  0.00    +0.000 C 
ATOM      8  C19 UNL     1      21.738  -9.364   3.721  0.00  0.00    +0.000 C 
ENDROOT
BRANCH   5   9
ATOM      9  C5  UNL     1      16.922  -7.926   2.640  0.00  0.00    +0.000 C 
ATOM     10  C6  UNL     1      15.463  -8.169   3.062  0.00  0.00    +0.000 C 
ATOM     11  C7  UNL     1      14.724  -7.051   2.340  0.00  0.00    +0.000 C 
ATOM     12  C8  UNL     1      15.389  -6.982   0.958  0.00  0.00    +0.000 C 
ATOM     13  C9  UNL     1      15.465  -5.551   0.436  0.00  0.00    +0.000 C 
ATOM     14  C10 UNL     1      16.791  -7.621   1.130  0.00  0.00    +0.000 C 
BRANCH  14  15
ATOM     15  C11 UNL     1      16.893  -8.880   0.266  0.00  0.00    +0.000 C 
ATOM     16  O1  UNL     1      17.983  -9.360  -0.044  0.00  0.00    +0.000 OA
BRANCH  15  17
ATOM     17  C12 UNL     1      15.574  -9.482  -0.202  0.00  0.00    +0.000 C 
BRANCH  17  18
ATOM     18  C13 UNL     1      15.281 -10.867   0.395  0.00  0.00    +0.000 C 
ATOM     19  C14 UNL     1      13.955 -10.873   1.160  0.00  0.00    +0.000 C 
ATOM     20  C15 UNL     1      15.242 -11.920  -0.714  0.00  0.00    +0.000 C 
ENDBRANCH  17  18
ENDBRANCH  15  17
ENDBRANCH  14  15
ENDBRANCH   5   9
BRANCH   6  21
ATOM     21  C17 UNL     1      19.891  -7.302   2.916  0.00  0.00    +0.000 C 
ATOM     22  N2  UNL     1      20.182  -6.867   1.732  0.00  0.00    +0.000 NA
BRANCH  22  23
ATOM     23  O2  UNL     1      20.675  -5.562   1.836  0.00  0.00    +0.000 OA
ATOM     24  H   UNL     1      20.534  -5.069   2.620  0.00  0.00    +0.000 HD
ENDBRANCH  22  23
ENDBRANCH   6  21
TORSDOF 6
ENDMDL
MODEL 8
REMARK VINA RESULT:    -5.318     24.039     26.152
REMARK INTER + INTRA:          -8.600
REMARK INTER:                  -7.142
REMARK INTRA:                  -1.458
REMARK UNBOUND:                -1.572
REMARK  Name = laboratorio_evolutivo\Gen7_Mutante_3.pdb
REMARK  11 active torsions:
REMARK  status: ('A' for Active; 'I' for Inactive)
REMARK    1  A    between atoms: C1_1  and  C2_2
REMARK    2  A    between atoms: C4_5  and  C5_6
REMARK    3  A    between atoms: C8_9  and  C9_10
REMARK    4  A    between atoms: C10_11  and  C11_12
REMARK    5  A    between atoms: C11_12  and  C12_14
REMARK    6  A    between atoms: C12_14  and  C13_15
REMARK    7  A    between atoms: C13_15  and  C14_16
REMARK    8  A    between atoms: C13_15  and  C15_17
REMARK    9  A    between atoms: C16_18  and  C17_19
REMARK   10  A    between atoms: N2_20  and  O2_21
REMARK   11  A    between atoms: C18_22  and  C19_23
REMARK                            x       y       z     vdW  Elec       q    Type
REMARK                         _______ _______ _______ _____ _____    ______ ____
ROOT
ATOM      1  C1  UNL     1      -2.525   3.901  19.851  0.00  0.00    +0.000 C 
ATOM      2  C2  UNL     1      -1.939   2.519  19.902  0.00  0.00    +0.000 C 
ATOM      3  N1  UNL     1      -0.603   2.473  20.086  0.00  0.00    +0.000 NA
ATOM      4  C3  UNL     1       0.001   1.267  20.136  0.00  0.00    +0.000 C 
ATOM      5  C4  UNL     1      -0.647   0.045  20.006  0.00  0.00    +0.000 C 
ATOM      6  C16 UNL     1      -2.045   0.118  19.811  0.00  0.00    +0.000 C 
ATOM      7  C18 UNL     1      -2.717   1.365  19.778  0.00  0.00    +0.000 C 
ATOM      8  C19 UNL     1      -4.209   1.459  19.588  0.00  0.00    +0.000 C 
ENDROOT
BRANCH   5   9
ATOM      9  C5  UNL     1       0.136  -1.251  20.044  0.00  0.00    +0.000 C 
ATOM     10  C6  UNL     1       1.456  -1.288  20.834  0.00  0.00    +0.000 C 
ATOM     11  C7  UNL     1       2.007  -2.663  20.483  0.00  0.00    +0.000 C 
ATOM     12  C8  UNL     1       1.708  -2.826  18.987  0.00  0.00    +0.000 C 
ATOM     13  C9  UNL     1       1.367  -4.269  18.630  0.00  0.00    +0.000 C 
ATOM     14  C10 UNL     1       0.542  -1.853  18.679  0.00  0.00    +0.000 C 
BRANCH  14  15
ATOM     15  C11 UNL     1       1.009  -0.787  17.685  0.00  0.00    +0.000 C 
ATOM     16  O1  UNL     1       2.080  -0.198  17.831  0.00  0.00    +0.000 OA
BRANCH  15  17
ATOM     17  C12 UNL     1       0.066  -0.489  16.527  0.00  0.00    +0.000 C 
BRANCH  17  18
ATOM     18  C13 UNL     1      -0.498   0.940  16.542  0.00  0.00    +0.000 C 
ATOM     19  C14 UNL     1       0.285   1.857  15.598  0.00  0.00    +0.000 C 
ATOM     20  C15 UNL     1      -1.974   0.926  16.140  0.00  0.00    +0.000 C 
ENDBRANCH  17  18
ENDBRANCH  15  17
ENDBRANCH  14  15
ENDBRANCH   5   9
BRANCH   6  21
ATOM     21  C17 UNL     1      -2.871  -1.095  19.585  0.00  0.00    +0.000 C 
ATOM     22  N2  UNL     1      -3.391  -1.796  20.541  0.00  0.00    +0.000 NA
BRANCH  22  23
ATOM     23  O2  UNL     1      -4.103  -2.865  19.986  0.00  0.00    +0.000 OA
ATOM     24  H   UNL     1      -4.608  -3.428  20.539  0.00  0.00    +0.000 HD
ENDBRANCH  22  23
ENDBRANCH   6  21
TORSDOF 6
ENDMDL
MODEL 9
REMARK VINA RESULT:    -5.261     21.649     24.566
REMARK INTER + INTRA:          -8.524
REMARK INTER:                  -7.136
REMARK INTRA:                  -1.388
REMARK UNBOUND:                -1.572
REMARK  Name = laboratorio_evolutivo\Gen7_Mutante_3.pdb
REMARK  11 active torsions:
REMARK  status: ('A' for Active; 'I' for Inactive)
REMARK    1  A    between atoms: C1_1  and  C2_2
REMARK    2  A    between atoms: C4_5  and  C5_6
REMARK    3  A    between atoms: C8_9  and  C9_10
REMARK    4  A    between atoms: C10_11  and  C11_12
REMARK    5  A    between atoms: C11_12  and  C12_14
REMARK    6  A    between atoms: C12_14  and  C13_15
REMARK    7  A    between atoms: C13_15  and  C14_16
REMARK    8  A    between atoms: C13_15  and  C15_17
REMARK    9  A    between atoms: C16_18  and  C17_19
REMARK   10  A    between atoms: N2_20  and  O2_21
REMARK   11  A    between atoms: C18_22  and  C19_23
REMARK                            x       y       z     vdW  Elec       q    Type
REMARK                         _______ _______ _______ _____ _____    ______ ____
ROOT
ATOM      1  C1  UNL     1      -1.180  -0.174  13.806  0.00  0.00    +0.000 C 
ATOM      2  C2  UNL     1      -0.723  -0.687  15.142  0.00  0.00    +0.000 C 
ATOM      3  N1  UNL     1      -1.615  -0.537  16.144  0.00  0.00    +0.000 NA
ATOM      4  C3  UNL     1      -1.276  -0.967  17.379  0.00  0.00    +0.000 C 
ATOM      5  C4  UNL     1      -0.064  -1.558  17.713  0.00  0.00    +0.000 C 
ATOM      6  C16 UNL     1       0.854  -1.703  16.648  0.00  0.00    +0.000 C 
ATOM      7  C18 UNL     1       0.525  -1.285  15.334  0.00  0.00    +0.000 C 
ATOM      8  C19 UNL     1       1.486  -1.448  14.185  0.00  0.00    +0.000 C 
ENDROOT
BRANCH   5   9
ATOM      9  C5  UNL     1       0.224  -1.974  19.141  0.00  0.00    +0.000 C 
ATOM     10  C6  UNL     1      -0.963  -2.183  20.097  0.00  0.00    +0.000 C 
ATOM     11  C7  UNL     1      -0.269  -2.405  21.434  0.00  0.00    +0.000 C 
ATOM     12  C8  UNL     1       0.882  -1.390  21.441  0.00  0.00    +0.000 C 
ATOM     13  C9  UNL     1       2.118  -1.939  22.146  0.00  0.00    +0.000 C 
ATOM     14  C10 UNL     1       1.156  -1.048  19.955  0.00  0.00    +0.000 C 
BRANCH  14  15
ATOM     15  C11 UNL     1       0.870   0.435  19.707  0.00  0.00    +0.000 C 
ATOM     16  O1  UNL     1      -0.096   0.999  20.222  0.00  0.00    +0.000 OA
BRANCH  15  17
ATOM     17  C12 UNL     1       1.833   1.158  18.774  0.00  0.00    +0.000 C 
BRANCH  17  18
ATOM     18  C13 UNL     1       1.223   2.393  18.092  0.00  0.00    +0.000 C 
ATOM     19  C14 UNL     1       2.048   3.651  18.379  0.00  0.00    +0.000 C 
ATOM     20  C15 UNL     1       1.134   2.168  16.582  0.00  0.00    +0.000 C 
ENDBRANCH  17  18
ENDBRANCH  15  17
ENDBRANCH  14  15
ENDBRANCH   5   9
BRANCH   6  21
ATOM     21  C17 UNL     1       2.218  -2.251  16.855  0.00  0.00    +0.000 C 
ATOM     22  N2  UNL     1       2.463  -3.508  17.045  0.00  0.00    +0.000 NA
BRANCH  22  23
ATOM     23  O2  UNL     1       3.842  -3.682  17.207  0.00  0.00    +0.000 OA
ATOM     24  H   UNL     1       4.253  -4.469  16.907  0.00  0.00    +0.000 HD
ENDBRANCH  22  23
ENDBRANCH   6  21
TORSDOF 6
ENDMDL
