MODEL 1
REMARK VINA RESULT:    -6.094      0.000      0.000
REMARK INTER + INTRA:         -10.239
REMARK INTER:                  -8.410
REMARK INTRA:                  -1.830
REMARK UNBOUND:                -1.830
REMARK  Name = laboratorio_evolutivo\Gen7_Mutante_1.pdb
REMARK  11 active torsions:
REMARK  status: ('A' for Active; 'I' for Inactive)
REMARK    1  A    between atoms: C1_1  and  C2_2
REMARK    2  A    between atoms: C2_2  and  C3_3
REMARK    3  A    between atoms: C3_3  and  C4_4
REMARK    4  A    between atoms: C3_3  and  C5_5
REMARK    5  A    between atoms: C5_5  and  C6_6
REMARK    6  A    between atoms: C6_6  and  C7_8
REMARK    7  A    between atoms: C8_9  and  C9_10
REMARK    8  A    between atoms: C12_13  and  C13_14
REMARK    9  A    between atoms: C15_17  and  C16_18
REMARK   10  A    between atoms: C18_20  and  C19_21
REMARK   11  A    between atoms: N2_22  and  O2_23
REMARK                            x       y       z     vdW  Elec       q    Type
REMARK                         _______ _______ _______ _____ _____    ______ ____
ROOT
ATOM      1  C7  UNL     1       1.366   0.217  19.284  0.00  0.00    +0.000 C 
ATOM      2  C8  UNL     1       1.131   1.622  18.710  0.00  0.00    +0.000 C 
ATOM      3  C9  UNL     1       1.215   2.728  19.755  0.00  0.00    +0.000 C 
ATOM      4  C10 UNL     1       2.232   1.749  17.660  0.00  0.00    +0.000 C 
ATOM      5  C11 UNL     1       2.287   0.379  16.995  0.00  0.00    +0.000 C 
ATOM      6  C12 UNL     1       1.851  -0.630  18.076  0.00  0.00    +0.000 C 
ENDROOT
BRANCH   6   7
ATOM      7  C13 UNL     1       0.967  -1.745  17.558  0.00  0.00    +0.000 C 
ATOM      8  C14 UNL     1      -0.045  -1.411  16.655  0.00  0.00    +0.000 C 
ATOM      9  N1  UNL     1      -0.871  -2.291  16.045  0.00  0.00    +0.000 NA
ATOM     10  C15 UNL     1      -0.714  -3.601  16.328  0.00  0.00    +0.000 C 
ATOM     11  C16 UNL     1      -1.617  -4.575  15.635  0.00  0.00    +0.000 C 
ATOM     12  C17 UNL     1       0.240  -4.048  17.226  0.00  0.00    +0.000 C 
ATOM     13  C18 UNL     1       1.076  -3.112  17.844  0.00  0.00    +0.000 C 
BRANCH  13  14
ATOM     14  C19 UNL     1       2.019  -3.658  18.833  0.00  0.00    +0.000 C 
ATOM     15  N2  UNL     1       3.253  -4.001  18.623  0.00  0.00    +0.000 NA
BRANCH  15  16
ATOM     16  O2  UNL     1       3.647  -3.737  17.304  0.00  0.00    +0.000 OA
ATOM     17  H   UNL     1       3.059  -3.912  16.596  0.00  0.00    +0.000 HD
ENDBRANCH  15  16
ENDBRANCH  13  14
ENDBRANCH   6   7
BRANCH   1  18
ATOM     18  C6  UNL     1       0.202  -0.345  20.101  0.00  0.00    +0.000 C 
ATOM     19  O1  UNL     1      -0.973  -0.068  19.850  0.00  0.00    +0.000 OA
BRANCH  18  20
ATOM     20  C5  UNL     1       0.554  -1.241  21.279  0.00  0.00    +0.000 C 
BRANCH  20  21
ATOM     21  C3  UNL     1       2.038  -1.143  21.668  0.00  0.00    +0.000 C 
ATOM     22  C4  UNL     1       2.490  -2.414  22.401  0.00  0.00    +0.000 C 
BRANCH  21  24
ATOM     23  C1  UNL     1       3.570   0.854  22.173  0.00  0.00    +0.000 C 
ATOM     24  C2  UNL     1       2.317   0.082  22.562  0.00  0.00    +0.000 C 
ENDBRANCH  21  24
ENDBRANCH  20  21
ENDBRANCH  18  20
ENDBRANCH   1  18
TORSDOF 7
ENDMDL
MODEL 2
REMARK VINA RESULT:    -6.078      2.320      4.809
REMARK INTER + INTRA:         -10.217
REMARK INTER:                  -8.614
REMARK INTRA:                  -1.603
REMARK UNBOUND:                -1.830
REMARK  Name = laboratorio_evolutivo\Gen7_Mutante_1.pdb
REMARK  11 active torsions:
REMARK  status: ('A' for Active; 'I' for Inactive)
REMARK    1  A    between atoms: C1_1  and  C2_2
REMARK    2  A    between atoms: C2_2  and  C3_3
REMARK    3  A    between atoms: C3_3  and  C4_4
REMARK    4  A    between atoms: C3_3  and  C5_5
REMARK    5  A    between atoms: C5_5  and  C6_6
REMARK    6  A    between atoms: C6_6  and  C7_8
REMARK    7  A    between atoms: C8_9  and  C9_10
REMARK    8  A    between atoms: C12_13  and  C13_14
REMARK    9  A    between atoms: C15_17  and  C16_18
REMARK   10  A    between atoms: C18_20  and  C19_21
REMARK   11  A    between atoms: N2_22  and  O2_23
REMARK                            x       y       z     vdW  Elec       q    Type
REMARK                         _______ _______ _______ _____ _____    ______ ____
ROOT
ATOM      1  C7  UNL     1       1.982   1.795  20.805  0.00  0.00    +0.000 C 
ATOM      2  C8  UNL     1       3.414   1.599  21.324  0.00  0.00    +0.000 C 
ATOM      3  C9  UNL     1       4.110   2.904  21.694  0.00  0.00    +0.000 C 
ATOM      4  C10 UNL     1       3.215   0.698  22.540  0.00  0.00    +0.000 C 
ATOM      5  C11 UNL     1       2.149  -0.301  22.106  0.00  0.00    +0.000 C 
ATOM      6  C12 UNL     1       1.272   0.441  21.078  0.00  0.00    +0.000 C 
ENDROOT
BRANCH   6   7
ATOM      7  C13 UNL     1       0.841  -0.412  19.904  0.00  0.00    +0.000 C 
ATOM      8  C14 UNL     1       1.786  -1.267  19.335  0.00  0.00    +0.000 C 
ATOM      9  N1  UNL     1       1.547  -2.144  18.334  0.00  0.00    +0.000 NA
ATOM     10  C15 UNL     1       0.294  -2.203  17.836  0.00  0.00    +0.000 C 
ATOM     11  C16 UNL     1       0.027  -3.190  16.740  0.00  0.00    +0.000 C 
ATOM     12  C17 UNL     1      -0.721  -1.386  18.304  0.00  0.00    +0.000 C 
ATOM     13  C18 UNL     1      -0.439  -0.487  19.339  0.00  0.00    +0.000 C 
BRANCH  13  14
ATOM     14  C19 UNL     1      -1.551   0.391  19.737  0.00  0.00    +0.000 C 
ATOM     15  N2  UNL     1      -2.443   0.151  20.649  0.00  0.00    +0.000 NA
BRANCH  15  16
ATOM     16  O2  UNL     1      -2.203  -1.068  21.298  0.00  0.00    +0.000 OA
ATOM     17  H   UNL     1      -1.973  -1.079  22.207  0.00  0.00    +0.000 HD
ENDBRANCH  15  16
ENDBRANCH  13  14
ENDBRANCH   6   7
BRANCH   1  18
ATOM     18  C6  UNL     1       1.886   2.352  19.384  0.00  0.00    +0.000 C 
ATOM     19  O1  UNL     1       2.666   2.016  18.490  0.00  0.00    +0.000 OA
BRANCH  18  20
ATOM     20  C5  UNL     1       0.801   3.387  19.119  0.00  0.00    +0.000 C 
BRANCH  20  21
ATOM     21  C3  UNL     1       0.906   4.600  20.058  0.00  0.00    +0.000 C 
ATOM     22  C4  UNL     1      -0.414   5.384  20.077  0.00  0.00    +0.000 C 
BRANCH  21  24
ATOM     23  C1  UNL     1       2.711   6.259  20.818  0.00  0.00    +0.000 C 
ATOM     24  C2  UNL     1       2.050   5.547  19.646  0.00  0.00    +0.000 C 
ENDBRANCH  21  24
ENDBRANCH  20  21
ENDBRANCH  18  20
ENDBRANCH   1  18
TORSDOF 7
ENDMDL
MODEL 3
REMARK VINA RESULT:    -5.825     23.620     25.401
REMARK INTER + INTRA:          -9.868
REMARK INTER:                  -8.272
REMARK INTRA:                  -1.596
REMARK UNBOUND:                -1.830
REMARK  Name = laboratorio_evolutivo\Gen7_Mutante_1.pdb
REMARK  11 active torsions:
REMARK  status: ('A' for Active; 'I' for Inactive)
REMARK    1  A    between atoms: C1_1  and  C2_2
REMARK    2  A    between atoms: C2_2  and  C3_3
REMARK    3  A    between atoms: C3_3  and  C4_4
REMARK    4  A    between atoms: C3_3  and  C5_5
REMARK    5  A    between atoms: C5_5  and  C6_6
REMARK    6  A    between atoms: C6_6  and  C7_8
REMARK    7  A    between atoms: C8_9  and  C9_10
REMARK    8  A    between atoms: C12_13  and  C13_14
REMARK    9  A    between atoms: C15_17  and  C16_18
REMARK   10  A    between atoms: C18_20  and  C19_21
REMARK   11  A    between atoms: N2_22  and  O2_23
REMARK                            x       y       z     vdW  Elec       q    Type
REMARK                         _______ _______ _______ _____ _____    ______ ____
ROOT
ATOM      1  C7  UNL     1      19.219  -8.780   2.666  0.00  0.00    +0.000 C 
ATOM      2  C8  UNL     1      19.927  -8.267   3.929  0.00  0.00    +0.000 C 
ATOM      3  C9  UNL     1      20.598  -9.369   4.740  0.00  0.00    +0.000 C 
ATOM      4  C10 UNL     1      20.944  -7.275   3.369  0.00  0.00    +0.000 C 
ATOM      5  C11 UNL     1      20.197  -6.546   2.259  0.00  0.00    +0.000 C 
ATOM      6  C12 UNL     1      19.166  -7.553   1.715  0.00  0.00    +0.000 C 
ENDROOT
BRANCH   6   7
ATOM      7  C13 UNL     1      17.822  -6.941   1.379  0.00  0.00    +0.000 C 
ATOM      8  C14 UNL     1      17.293  -6.001   2.265  0.00  0.00    +0.000 C 
ATOM      9  N1  UNL     1      16.146  -5.310   2.080  0.00  0.00    +0.000 NA
ATOM     10  C15 UNL     1      15.447  -5.544   0.950  0.00  0.00    +0.000 C 
ATOM     11  C16 UNL     1      14.186  -4.761   0.738  0.00  0.00    +0.000 C 
ATOM     12  C17 UNL     1      15.860  -6.472   0.010  0.00  0.00    +0.000 C 
ATOM     13  C18 UNL     1      17.050  -7.173   0.234  0.00  0.00    +0.000 C 
BRANCH  13  14
ATOM     14  C19 UNL     1      17.389  -8.187  -0.777  0.00  0.00    +0.000 C 
ATOM     15  N2  UNL     1      18.140  -8.021  -1.824  0.00  0.00    +0.000 NA
BRANCH  15  16
ATOM     16  O2  UNL     1      18.676  -6.728  -1.876  0.00  0.00    +0.000 OA
ATOM     17  H   UNL     1      19.395  -6.496  -1.321  0.00  0.00    +0.000 HD
ENDBRANCH  15  16
ENDBRANCH  13  14
ENDBRANCH   6   7
BRANCH   1  18
ATOM     18  C6  UNL     1      17.903  -9.514   2.923  0.00  0.00    +0.000 C 
ATOM     19  O1  UNL     1      17.091  -9.134   3.770  0.00  0.00    +0.000 OA
BRANCH  18  20
ATOM     20  C5  UNL     1      17.645 -10.775   2.111  0.00  0.00    +0.000 C 
BRANCH  20  21
ATOM     21  C3  UNL     1      18.820 -11.764   2.175  0.00  0.00    +0.000 C 
ATOM     22  C4  UNL     1      18.837 -12.664   0.931  0.00  0.00    +0.000 C 
BRANCH  21  24
ATOM     23  C1  UNL     1      20.127 -13.020   3.992  0.00  0.00    +0.000 C 
ATOM     24  C2  UNL     1      18.760 -12.647   3.437  0.00  0.00    +0.000 C 
ENDBRANCH  21  24
ENDBRANCH  20  21
ENDBRANCH  18  20
ENDBRANCH   1  18
TORSDOF 7
ENDMDL
MODEL 4
REMARK VINA RESULT:    -5.780      2.244      4.535
REMARK INTER + INTRA:          -9.806
REMARK INTER:                  -8.239
REMARK INTRA:                  -1.567
REMARK UNBOUND:                -1.830
REMARK  Name = laboratorio_evolutivo\Gen7_Mutante_1.pdb
REMARK  11 active torsions:
REMARK  status: ('A' for Active; 'I' for Inactive)
REMARK    1  A    between atoms: C1_1  and  C2_2
REMARK    2  A    between atoms: C2_2  and  C3_3
REMARK    3  A    between atoms: C3_3  and  C4_4
REMARK    4  A    between atoms: C3_3  and  C5_5
REMARK    5  A    between atoms: C5_5  and  C6_6
REMARK    6  A    between atoms: C6_6  and  C7_8
REMARK    7  A    between atoms: C8_9  and  C9_10
REMARK    8  A    between atoms: C12_13  and  C13_14
REMARK    9  A    between atoms: C15_17  and  C16_18
REMARK   10  A    between atoms: C18_20  and  C19_21
REMARK   11  A    between atoms: N2_22  and  O2_23
REMARK                            x       y       z     vdW  Elec       q    Type
REMARK                         _______ _______ _______ _____ _____    ______ ____
ROOT
ATOM      1  C7  UNL     1       1.363   0.880  20.799  0.00  0.00    +0.000 C 
ATOM      2  C8  UNL     1       2.841   1.141  21.127  0.00  0.00    +0.000 C 
ATOM      3  C9  UNL     1       3.201   2.621  21.170  0.00  0.00    +0.000 C 
ATOM      4  C10 UNL     1       3.009   0.476  22.492  0.00  0.00    +0.000 C 
ATOM      5  C11 UNL     1       2.207  -0.815  22.390  0.00  0.00    +0.000 C 
ATOM      6  C12 UNL     1       1.067  -0.524  21.394  0.00  0.00    +0.000 C 
ENDROOT
BRANCH   6   7
ATOM      7  C13 UNL     1       0.760  -1.671  20.455  0.00  0.00    +0.000 C 
ATOM      8  C14 UNL     1       1.807  -2.525  20.102  0.00  0.00    +0.000 C 
ATOM      9  N1  UNL     1       1.690  -3.632  19.335  0.00  0.00    +0.000 NA
ATOM     10  C15 UNL     1       0.465  -3.945  18.866  0.00  0.00    +0.000 C 
ATOM     11  C16 UNL     1       0.334  -5.185  18.033  0.00  0.00    +0.000 C 
ATOM     12  C17 UNL     1      -0.645  -3.160  19.130  0.00  0.00    +0.000 C 
ATOM     13  C18 UNL     1      -0.489  -2.018  19.923  0.00  0.00    +0.000 C 
BRANCH  13  14
ATOM     14  C19 UNL     1      -1.699  -1.201  20.105  0.00  0.00    +0.000 C 
ATOM     15  N2  UNL     1      -2.590  -1.329  21.040  0.00  0.00    +0.000 NA
BRANCH  15  16
ATOM     16  O2  UNL     1      -2.245  -2.339  21.948  0.00  0.00    +0.000 OA
ATOM     17  H   UNL     1      -1.968  -2.115  22.815  0.00  0.00    +0.000 HD
ENDBRANCH  15  16
ENDBRANCH  13  14
ENDBRANCH   6   7
BRANCH   1  18
ATOM     18  C6  UNL     1       0.982   1.105  19.335  0.00  0.00    +0.000 C 
ATOM     19  O1  UNL     1      -0.121   1.542  19.001  0.00  0.00    +0.000 OA
BRANCH  18  20
ATOM     20  C5  UNL     1       2.017   0.724  18.286  0.00  0.00    +0.000 C 
BRANCH  20  21
ATOM     21  C3  UNL     1       1.458  -0.254  17.239  0.00  0.00    +0.000 C 
ATOM     22  C4  UNL     1       2.563  -1.190  16.731  0.00  0.00    +0.000 C 
BRANCH  21  24
ATOM     23  C1  UNL     1       0.036  -0.419  15.109  0.00  0.00    +0.000 C 
ATOM     24  C2  UNL     1       0.831   0.485  16.041  0.00  0.00    +0.000 C 
ENDBRANCH  21  24
ENDBRANCH  20  21
ENDBRANCH  18  20
ENDBRANCH   1  18
TORSDOF 7
ENDMDL
MODEL 5
REMARK VINA RESULT:    -5.679      3.158      4.582
REMARK INTER + INTRA:          -9.666
REMARK INTER:                  -8.292
REMARK INTRA:                  -1.374
REMARK UNBOUND:                -1.830
REMARK  Name = laboratorio_evolutivo\Gen7_Mutante_1.pdb
REMARK  11 active torsions:
REMARK  status: ('A' for Active; 'I' for Inactive)
REMARK    1  A    between atoms: C1_1  and  C2_2
REMARK    2  A    between atoms: C2_2  and  C3_3
REMARK    3  A    between atoms: C3_3  and  C4_4
REMARK    4  A    between atoms: C3_3  and  C5_5
REMARK    5  A    between atoms: C5_5  and  C6_6
REMARK    6  A    between atoms: C6_6  and  C7_8
REMARK    7  A    between atoms: C8_9  and  C9_10
REMARK    8  A    between atoms: C12_13  and  C13_14
REMARK    9  A    between atoms: C15_17  and  C16_18
REMARK   10  A    between atoms: C18_20  and  C19_21
REMARK   11  A    between atoms: N2_22  and  O2_23
REMARK                            x       y       z     vdW  Elec       q    Type
REMARK                         _______ _______ _______ _____ _____    ______ ____
ROOT
ATOM      1  C7  UNL     1       0.410  -0.133  18.834  0.00  0.00    +0.000 C 
ATOM      2  C8  UNL     1       1.003   0.517  17.576  0.00  0.00    +0.000 C 
ATOM      3  C9  UNL     1       2.527   0.518  17.553  0.00  0.00    +0.000 C 
ATOM      4  C10 UNL     1       0.419  -0.329  16.447  0.00  0.00    +0.000 C 
ATOM      5  C11 UNL     1      -1.022  -0.589  16.870  0.00  0.00    +0.000 C 
ATOM      6  C12 UNL     1      -1.014  -0.589  18.412  0.00  0.00    +0.000 C 
ENDROOT
BRANCH   6   7
ATOM      7  C13 UNL     1      -2.217   0.085  19.035  0.00  0.00    +0.000 C 
ATOM      8  C14 UNL     1      -2.709   1.240  18.424  0.00  0.00    +0.000 C 
ATOM      9  N1  UNL     1      -3.813   1.919  18.809  0.00  0.00    +0.000 NA
ATOM     10  C15 UNL     1      -4.501   1.451  19.871  0.00  0.00    +0.000 C 
ATOM     11  C16 UNL     1      -5.736   2.195  20.282  0.00  0.00    +0.000 C 
ATOM     12  C17 UNL     1      -4.095   0.329  20.572  0.00  0.00    +0.000 C 
ATOM     13  C18 UNL     1      -2.946  -0.349  20.150  0.00  0.00    +0.000 C 
BRANCH  13  14
ATOM     14  C19 UNL     1      -2.543  -1.493  20.984  0.00  0.00    +0.000 C 
ATOM     15  N2  UNL     1      -3.065  -2.682  20.978  0.00  0.00    +0.000 NA
BRANCH  15  16
ATOM     16  O2  UNL     1      -4.070  -2.800  20.009  0.00  0.00    +0.000 OA
ATOM     17  H   UNL     1      -4.484  -3.628  19.861  0.00  0.00    +0.000 HD
ENDBRANCH  15  16
ENDBRANCH  13  14
ENDBRANCH   6   7
BRANCH   1  18
ATOM     18  C6  UNL     1       0.516   0.713  20.104  0.00  0.00    +0.000 C 
ATOM     19  O1  UNL     1       0.447   1.943  20.084  0.00  0.00    +0.000 OA
BRANCH  18  20
ATOM     20  C5  UNL     1       0.757  -0.030  21.410  0.00  0.00    +0.000 C 
BRANCH  20  21
ATOM     21  C3  UNL     1       2.223  -0.463  21.577  0.00  0.00    +0.000 C 
ATOM     22  C4  UNL     1       2.305  -1.866  22.196  0.00  0.00    +0.000 C 
BRANCH  21  24
ATOM     23  C1  UNL     1       3.719   1.621  21.668  0.00  0.00    +0.000 C 
ATOM     24  C2  UNL     1       3.016   0.524  22.456  0.00  0.00    +0.000 C 
ENDBRANCH  21  24
ENDBRANCH  20  21
ENDBRANCH  18  20
ENDBRANCH   1  18
TORSDOF 7
ENDMDL
MODEL 6
REMARK VINA RESULT:    -5.636     23.459     25.328
REMARK INTER + INTRA:          -9.607
REMARK INTER:                  -7.903
REMARK INTRA:                  -1.704
REMARK UNBOUND:                -1.830
REMARK  Name = laboratorio_evolutivo\Gen7_Mutante_1.pdb
REMARK  11 active torsions:
REMARK  status: ('A' for Active; 'I' for Inactive)
REMARK    1  A    between atoms: C1_1  and  C2_2
REMARK    2  A    between atoms: C2_2  and  C3_3
REMARK    3  A    between atoms: C3_3  and  C4_4
REMARK    4  A    between atoms: C3_3  and  C5_5
REMARK    5  A    between atoms: C5_5  and  C6_6
REMARK    6  A    between atoms: C6_6  and  C7_8
REMARK    7  A    between atoms: C8_9  and  C9_10
REMARK    8  A    between atoms: C12_13  and  C13_14
REMARK    9  A    between atoms: C15_17  and  C16_18
REMARK   10  A    between atoms: C18_20  and  C19_21
REMARK   11  A    between atoms: N2_22  and  O2_23
REMARK                            x       y       z     vdW  Elec       q    Type
REMARK                         _______ _______ _______ _____ _____    ______ ____
ROOT
ATOM      1  C7  UNL     1      19.213  -7.310   1.171  0.00  0.00    +0.000 C 
ATOM      2  C8  UNL     1      19.468  -7.559   2.665  0.00  0.00    +0.000 C 
ATOM      3  C9  UNL     1      19.896  -8.988   2.979  0.00  0.00    +0.000 C 
ATOM      4  C10 UNL     1      20.568  -6.552   2.994  0.00  0.00    +0.000 C 
ATOM      5  C11 UNL     1      20.177  -5.294   2.229  0.00  0.00    +0.000 C 
ATOM      6  C12 UNL     1      19.410  -5.781   0.984  0.00  0.00    +0.000 C 
ENDROOT
BRANCH   6   7
ATOM      7  C13 UNL     1      18.215  -4.925   0.621  0.00  0.00    +0.000 C 
ATOM      8  C14 UNL     1      17.337  -4.561   1.643  0.00  0.00    +0.000 C 
ATOM      9  N1  UNL     1      16.268  -3.745   1.504  0.00  0.00    +0.000 NA
ATOM     10  C15 UNL     1      16.020  -3.238   0.278  0.00  0.00    +0.000 C 
ATOM     11  C16 UNL     1      14.846  -2.317   0.131  0.00  0.00    +0.000 C 
ATOM     12  C17 UNL     1      16.808  -3.548  -0.817  0.00  0.00    +0.000 C 
ATOM     13  C18 UNL     1      17.904  -4.398  -0.640  0.00  0.00    +0.000 C 
BRANCH  13  14
ATOM     14  C19 UNL     1      18.653  -4.731  -1.861  0.00  0.00    +0.000 C 
ATOM     15  N2  UNL     1      18.335  -5.623  -2.750  0.00  0.00    +0.000 NA
BRANCH  15  16
ATOM     16  O2  UNL     1      17.110  -6.236  -2.451  0.00  0.00    +0.000 OA
ATOM     17  H   UNL     1      17.093  -7.118  -2.134  0.00  0.00    +0.000 HD
ENDBRANCH  15  16
ENDBRANCH  13  14
ENDBRANCH   6   7
BRANCH   1  18
ATOM     18  C6  UNL     1      17.913  -7.911   0.635  0.00  0.00    +0.000 C 
ATOM     19  O1  UNL     1      17.772  -8.230  -0.548  0.00  0.00    +0.000 OA
BRANCH  18  20
ATOM     20  C5  UNL     1      16.764  -8.064   1.622  0.00  0.00    +0.000 C 
BRANCH  20  21
ATOM     21  C3  UNL     1      15.414  -8.287   0.920  0.00  0.00    +0.000 C 
ATOM     22  C4  UNL     1      14.575  -7.002   0.942  0.00  0.00    +0.000 C 
BRANCH  21  24
ATOM     23  C1  UNL     1      15.411 -10.253   2.571  0.00  0.00    +0.000 C 
ATOM     24  C2  UNL     1      14.609  -9.427   1.575  0.00  0.00    +0.000 C 
ENDBRANCH  21  24
ENDBRANCH  20  21
ENDBRANCH  18  20
ENDBRANCH   1  18
TORSDOF 7
ENDMDL
MODEL 7
REMARK VINA RESULT:    -5.560     22.993     24.805
REMARK INTER + INTRA:          -9.502
REMARK INTER:                  -8.234
REMARK INTRA:                  -1.268
REMARK UNBOUND:                -1.830
REMARK  Name = laboratorio_evolutivo\Gen7_Mutante_1.pdb
REMARK  11 active torsions:
REMARK  status: ('A' for Active; 'I' for Inactive)
REMARK    1  A    between atoms: C1_1  and  C2_2
REMARK    2  A    between atoms: C2_2  and  C3_3
REMARK    3  A    between atoms: C3_3  and  C4_4
REMARK    4  A    between atoms: C3_3  and  C5_5
REMARK    5  A    between atoms: C5_5  and  C6_6
REMARK    6  A    between atoms: C6_6  and  C7_8
REMARK    7  A    between atoms: C8_9  and  C9_10
REMARK    8  A    between atoms: C12_13  and  C13_14
REMARK    9  A    between atoms: C15_17  and  C16_18
REMARK   10  A    between atoms: C18_20  and  C19_21
REMARK   11  A    between atoms: N2_22  and  O2_23
REMARK                            x       y       z     vdW  Elec       q    Type
REMARK                         _______ _______ _______ _____ _____    ______ ____
ROOT
ATOM      1  C7  UNL     1      17.664  -7.995  -0.680  0.00  0.00    +0.000 C 
ATOM      2  C8  UNL     1      16.984  -7.907  -2.055  0.00  0.00    +0.000 C 
ATOM      3  C9  UNL     1      17.969  -7.810  -3.214  0.00  0.00    +0.000 C 
ATOM      4  C10 UNL     1      16.164  -9.194  -2.112  0.00  0.00    +0.000 C 
ATOM      5  C11 UNL     1      15.594  -9.347  -0.708  0.00  0.00    +0.000 C 
ATOM      6  C12 UNL     1      16.618  -8.686   0.236  0.00  0.00    +0.000 C 
ENDROOT
BRANCH   6   7
ATOM      7  C13 UNL     1      15.995  -7.896   1.367  0.00  0.00    +0.000 C 
ATOM      8  C14 UNL     1      15.033  -6.937   1.042  0.00  0.00    +0.000 C 
ATOM      9  N1  UNL     1      14.332  -6.199   1.932  0.00  0.00    +0.000 NA
ATOM     10  C15 UNL     1      14.576  -6.397   3.244  0.00  0.00    +0.000 C 
ATOM     11  C16 UNL     1      13.781  -5.593   4.228  0.00  0.00    +0.000 C 
ATOM     12  C17 UNL     1      15.524  -7.304   3.685  0.00  0.00    +0.000 C 
ATOM     13  C18 UNL     1      16.236  -8.049   2.739  0.00  0.00    +0.000 C 
BRANCH  13  14
ATOM     14  C19 UNL     1      17.270  -8.943   3.282  0.00  0.00    +0.000 C 
ATOM     15  N2  UNL     1      17.116 -10.179   3.649  0.00  0.00    +0.000 NA
BRANCH  15  16
ATOM     16  O2  UNL     1      15.809 -10.628   3.414  0.00  0.00    +0.000 OA
ATOM     17  H   UNL     1      15.092 -10.025   3.450  0.00  0.00    +0.000 HD
ENDBRANCH  15  16
ENDBRANCH  13  14
ENDBRANCH   6   7
BRANCH   1  18
ATOM     18  C6  UNL     1      18.265  -6.683  -0.176  0.00  0.00    +0.000 C 
ATOM     19  O1  UNL     1      17.660  -5.611  -0.246  0.00  0.00    +0.000 OA
BRANCH  18  20
ATOM     20  C5  UNL     1      19.678  -6.740   0.386  0.00  0.00    +0.000 C 
BRANCH  20  21
ATOM     21  C3  UNL     1      19.713  -6.528   1.908  0.00  0.00    +0.000 C 
ATOM     22  C4  UNL     1      20.028  -5.063   2.242  0.00  0.00    +0.000 C 
BRANCH  21  24
ATOM     23  C1  UNL     1      20.602  -7.519   4.103  0.00  0.00    +0.000 C 
ATOM     24  C2  UNL     1      20.755  -7.437   2.590  0.00  0.00    +0.000 C 
ENDBRANCH  21  24
ENDBRANCH  20  21
ENDBRANCH  18  20
ENDBRANCH   1  18
TORSDOF 7
ENDMDL
MODEL 8
REMARK VINA RESULT:    -5.555     13.257     16.159
REMARK INTER + INTRA:          -9.495
REMARK INTER:                  -7.894
REMARK INTRA:                  -1.601
REMARK UNBOUND:                -1.830
REMARK  Name = laboratorio_evolutivo\Gen7_Mutante_1.pdb
REMARK  11 active torsions:
REMARK  status: ('A' for Active; 'I' for Inactive)
REMARK    1  A    between atoms: C1_1  and  C2_2
REMARK    2  A    between atoms: C2_2  and  C3_3
REMARK    3  A    between atoms: C3_3  and  C4_4
REMARK    4  A    between atoms: C3_3  and  C5_5
REMARK    5  A    between atoms: C5_5  and  C6_6
REMARK    6  A    between atoms: C6_6  and  C7_8
REMARK    7  A    between atoms: C8_9  and  C9_10
REMARK    8  A    between atoms: C12_13  and  C13_14
REMARK    9  A    between atoms: C15_17  and  C16_18
REMARK   10  A    between atoms: C18_20  and  C19_21
REMARK   11  A    between atoms: N2_22  and  O2_23
REMARK                            x       y       z     vdW  Elec       q    Type
REMARK                         _______ _______ _______ _____ _____    ______ ____
ROOT
ATOM      1  C7  UNL     1      -5.827 -13.233  20.638  0.00  0.00    +0.000 C 
ATOM      2  C8  UNL     1      -4.328 -13.088  20.340  0.00  0.00    +0.000 C 
ATOM      3  C9  UNL     1      -4.002 -11.920  19.416  0.00  0.00    +0.000 C 
ATOM      4  C10 UNL     1      -3.722 -12.899  21.728  0.00  0.00    +0.000 C 
ATOM      5  C11 UNL     1      -4.489 -13.871  22.616  0.00  0.00    +0.000 C 
ATOM      6  C12 UNL     1      -5.891 -13.995  21.989  0.00  0.00    +0.000 C 
ENDROOT
BRANCH   6   7
ATOM      7  C13 UNL     1      -6.458 -15.399  22.016  0.00  0.00    +0.000 C 
ATOM      8  C14 UNL     1      -5.573 -16.464  21.836  0.00  0.00    +0.000 C 
ATOM      9  N1  UNL     1      -5.901 -17.774  21.904  0.00  0.00    +0.000 NA
ATOM     10  C15 UNL     1      -7.187 -18.087  22.163  0.00  0.00    +0.000 C 
ATOM     11  C16 UNL     1      -7.544 -19.540  22.257  0.00  0.00    +0.000 C 
ATOM     12  C17 UNL     1      -8.159 -17.116  22.334  0.00  0.00    +0.000 C 
ATOM     13  C18 UNL     1      -7.787 -15.770  22.255  0.00  0.00    +0.000 C 
BRANCH  13  14
ATOM     14  C19 UNL     1      -8.886 -14.799  22.383  0.00  0.00    +0.000 C 
ATOM     15  N2  UNL     1      -9.418 -14.369  23.487  0.00  0.00    +0.000 NA
BRANCH  15  16
ATOM     16  O2  UNL     1      -8.776 -14.902  24.613  0.00  0.00    +0.000 OA
ATOM     17  H   UNL     1      -8.870 -14.485  25.447  0.00  0.00    +0.000 HD
ENDBRANCH  15  16
ENDBRANCH  13  14
ENDBRANCH   6   7
BRANCH   1  18
ATOM     18  C6  UNL     1      -6.658 -13.798  19.485  0.00  0.00    +0.000 C 
ATOM     19  O1  UNL     1      -6.256 -14.720  18.773  0.00  0.00    +0.000 OA
BRANCH  18  20
ATOM     20  C5  UNL     1      -8.006 -13.142  19.218  0.00  0.00    +0.000 C 
BRANCH  20  21
ATOM     21  C3  UNL     1      -8.116 -11.748  19.856  0.00  0.00    +0.000 C 
ATOM     22  C4  UNL     1      -9.453 -11.595  20.595  0.00  0.00    +0.000 C 
BRANCH  21  24
ATOM     23  C1  UNL     1      -8.750  -9.357  19.168  0.00  0.00    +0.000 C 
ATOM     24  C2  UNL     1      -7.988 -10.625  18.808  0.00  0.00    +0.000 C 
ENDBRANCH  21  24
ENDBRANCH  20  21
ENDBRANCH  18  20
ENDBRANCH   1  18
TORSDOF 7
ENDMDL
MODEL 9
REMARK VINA RESULT:    -5.542     12.619     15.584
REMARK INTER + INTRA:          -9.478
REMARK INTER:                  -7.818
REMARK INTRA:                  -1.659
REMARK UNBOUND:                -1.830
REMARK  Name = laboratorio_evolutivo\Gen7_Mutante_1.pdb
REMARK  11 active torsions:
REMARK  status: ('A' for Active; 'I' for Inactive)
REMARK    1  A    between atoms: C1_1  and  C2_2
REMARK    2  A    between atoms: C2_2  and  C3_3
REMARK    3  A    between atoms: C3_3  and  C4_4
REMARK    4  A    between atoms: C3_3  and  C5_5
REMARK    5  A    between atoms: C5_5  and  C6_6
REMARK    6  A    between atoms: C6_6  and  C7_8
REMARK    7  A    between atoms: C8_9  and  C9_10
REMARK    8  A    between atoms: C12_13  and  C13_14
REMARK    9  A    between atoms: C15_17  and  C16_18
REMARK   10  A    between atoms: C18_20  and  C19_21
REMARK   11  A    between atoms: N2_22  and  O2_23
REMARK                            x       y       z     vdW  Elec       q    Type
REMARK                         _______ _______ _______ _____ _____    ______ ____
ROOT
ATOM      1  C7  UNL     1      -4.887 -12.780  21.013  0.00  0.00    +0.000 C 
ATOM      2  C8  UNL     1      -3.386 -12.784  20.684  0.00  0.00    +0.000 C 
ATOM      3  C9  UNL     1      -2.937 -11.567  19.883  0.00  0.00    +0.000 C 
ATOM      4  C10 UNL     1      -2.736 -12.826  22.065  0.00  0.00    +0.000 C 
ATOM      5  C11 UNL     1      -3.600 -13.793  22.865  0.00  0.00    +0.000 C 
ATOM      6  C12 UNL     1      -5.019 -13.676  22.275  0.00  0.00    +0.000 C 
ENDROOT
BRANCH   6   7
ATOM      7  C13 UNL     1      -5.753 -14.995  22.166  0.00  0.00    +0.000 C 
ATOM      8  C14 UNL     1      -5.042 -16.102  21.699  0.00  0.00    +0.000 C 
ATOM      9  N1  UNL     1      -5.525 -17.362  21.610  0.00  0.00    +0.000 NA
ATOM     10  C15 UNL     1      -6.798 -17.576  22.001  0.00  0.00    +0.000 C 
ATOM     11  C16 UNL     1      -7.323 -18.978  21.921  0.00  0.00    +0.000 C 
ATOM     12  C17 UNL     1      -7.607 -16.551  22.459  0.00  0.00    +0.000 C 
ATOM     13  C18 UNL     1      -7.079 -15.258  22.535  0.00  0.00    +0.000 C 
BRANCH  13  14
ATOM     14  C19 UNL     1      -8.018 -14.212  22.970  0.00  0.00    +0.000 C 
ATOM     15  N2  UNL     1      -8.920 -13.627  22.242  0.00  0.00    +0.000 NA
BRANCH  15  16
ATOM     16  O2  UNL     1      -8.958 -14.152  20.943  0.00  0.00    +0.000 OA
ATOM     17  H   UNL     1      -8.213 -14.606  20.599  0.00  0.00    +0.000 HD
ENDBRANCH  15  16
ENDBRANCH  13  14
ENDBRANCH   6   7
BRANCH   1  18
ATOM     18  C6  UNL     1      -5.802 -13.108  19.833  0.00  0.00    +0.000 C 
ATOM     19  O1  UNL     1      -6.935 -12.633  19.725  0.00  0.00    +0.000 OA
BRANCH  18  20
ATOM     20  C5  UNL     1      -5.272 -14.092  18.799  0.00  0.00    +0.000 C 
BRANCH  20  21
ATOM     21  C3  UNL     1      -5.611 -13.671  17.361  0.00  0.00    +0.000 C 
ATOM     22  C4  UNL     1      -5.381 -14.836  16.388  0.00  0.00    +0.000 C 
BRANCH  21  24
ATOM     23  C1  UNL     1      -5.593 -11.196  16.676  0.00  0.00    +0.000 C 
ATOM     24  C2  UNL     1      -4.774 -12.459  16.905  0.00  0.00    +0.000 C 
ENDBRANCH  21  24
ENDBRANCH  20  21
ENDBRANCH  18  20
ENDBRANCH   1  18
TORSDOF 7
ENDMDL
