REMARK  Name = laboratorio_evolutivo\Gen7_Mutante_7.pdb
REMARK  10 active torsions:
REMARK  status: ('A' for Active; 'I' for Inactive)
REMARK    1  A    between atoms: C1_1  and  C2_2
REMARK    2  A    between atoms: C4_5  and  C5_6
REMARK    3  A    between atoms: C8_9  and  C9_10
REMARK    4  A    between atoms: C10_11  and  C11_12
REMARK    5  A    between atoms: C11_12  and  C12_14
REMARK    6  A    between atoms: C12_14  and  C13_15
REMARK    7  A    between atoms: C13_15  and  C14_16
REMARK    8  A    between atoms: C13_15  and  C15_17
REMARK    9  A    between atoms: C16_18  and  C17_19
REMARK   10  A    between atoms: N2_20  and  O2_21
REMARK                            x       y       z     vdW  Elec       q    Type
REMARK                         _______ _______ _______ _____ _____    ______ ____
ROOT
ATOM      1  C1  UNL     1      -2.830   2.318  -3.585  0.00  0.00    +0.000 C 
ATOM      2  C2  UNL     1      -2.265   1.278  -2.666  0.00  0.00    +0.000 C 
ATOM      3  N1  UNL     1      -1.547   0.277  -3.224  0.00  0.00    +0.000 NA
ATOM      4  C3  UNL     1      -1.059  -0.684  -2.402  0.00  0.00    +0.000 C 
ATOM      5  C4  UNL     1      -1.263  -0.736  -1.025  0.00  0.00    +0.000 C 
ATOM      6  C16 UNL     1      -2.029   0.316  -0.486  0.00  0.00    +0.000 C 
ATOM      7  C18 UNL     1      -2.533   1.324  -1.309  0.00  0.00    +0.000 C 
ATOM      8  F1  UNL     1      -3.304   2.307  -0.824  0.00  0.00    +0.000 F 
ENDROOT
BRANCH   5   9
ATOM      9  C5  UNL     1      -0.672  -1.839  -0.174  0.00  0.00    +0.000 C 
ATOM     10  C6  UNL     1      -0.075  -3.069  -0.873  0.00  0.00    +0.000 C 
ATOM     11  C7  UNL     1       0.583  -3.816   0.278  0.00  0.00    +0.000 C 
ATOM     12  C8  UNL     1       1.235  -2.715   1.123  0.00  0.00    +0.000 C 
ATOM     13  C9  UNL     1       1.228  -3.052   2.610  0.00  0.00    +0.000 C 
ATOM     14  C10 UNL     1       0.444  -1.420   0.810  0.00  0.00    +0.000 C 
BRANCH  14  15
ATOM     15  C11 UNL     1       1.397  -0.378   0.218  0.00  0.00    +0.000 C 
ATOM     16  O1  UNL     1       1.974  -0.572  -0.852  0.00  0.00    +0.000 OA
BRANCH  15  17
ATOM     17  C12 UNL     1       1.640   0.867   1.059  0.00  0.00    +0.000 C 
BRANCH  17  18
ATOM     18  C13 UNL     1       2.377   1.984   0.306  0.00  0.00    +0.000 C 
ATOM     19  C14 UNL     1       2.890   3.031   1.296  0.00  0.00    +0.000 C 
ATOM     20  C15 UNL     1       1.469   2.650  -0.730  0.00  0.00    +0.000 C 
ENDBRANCH  17  18
ENDBRANCH  15  17
ENDBRANCH  14  15
ENDBRANCH   5   9
BRANCH   6  21
ATOM     21  C17 UNL     1      -2.331   0.364   0.955  0.00  0.00    +0.000 C 
ATOM     22  N2  UNL     1      -2.402   1.478   1.614  0.00  0.00    +0.000 NA
BRANCH  22  23
ATOM     23  O2  UNL     1      -2.677   1.195   2.956  0.00  0.00    +0.000 OA
ATOM     24  H   UNL     1      -2.761   1.894   3.574  0.00  0.00    +0.000 HD
ENDBRANCH  22  23
ENDBRANCH   6  21
TORSDOF 6
