MODEL 1
REMARK VINA RESULT:    -6.352      0.000      0.000
REMARK INTER + INTRA:         -10.252
REMARK INTER:                  -8.766
REMARK INTRA:                  -1.486
REMARK UNBOUND:                -1.486
REMARK  Name = laboratorio_evolutivo\Gen7_Mutante_6.pdb
REMARK  11 active torsions:
REMARK  status: ('A' for Active; 'I' for Inactive)
REMARK    1  A    between atoms: C1_1  and  C2_2
REMARK    2  A    between atoms: C2_2  and  C3_3
REMARK    3  A    between atoms: C5_5  and  C6_6
REMARK    4  A    between atoms: N1_7  and  O1_8
REMARK    5  A    between atoms: C7_9  and  C8_10
REMARK    6  A    between atoms: C11_13  and  C12_14
REMARK    7  A    between atoms: C13_15  and  C14_16
REMARK    8  A    between atoms: C14_16  and  C15_18
REMARK    9  A    between atoms: C15_18  and  C16_19
REMARK   10  A    between atoms: C16_19  and  C17_20
REMARK   11  A    between atoms: C16_19  and  C18_21
REMARK                            x       y       z     vdW  Elec       q    Type
REMARK                         _______ _______ _______ _____ _____    ______ ____
ROOT
ATOM      1  C3  UNL     1      20.483  -8.459   3.409  0.00  0.00    +0.000 C 
ATOM      2  C4  UNL     1      19.313  -9.144   3.123  0.00  0.00    +0.000 C 
ATOM      3  C5  UNL     1      18.285  -8.475   2.453  0.00  0.00    +0.000 C 
ATOM      4  C7  UNL     1      18.440  -7.140   2.058  0.00  0.00    +0.000 C 
ATOM      5  C19 UNL     1      19.652  -6.546   2.410  0.00  0.00    +0.000 C 
ATOM      6  N2  UNL     1      20.661  -7.166   3.062  0.00  0.00    +0.000 NA
ENDROOT
BRANCH   4   7
ATOM      7  C8  UNL     1      17.375  -6.349   1.327  0.00  0.00    +0.000 C 
ATOM      8  C9  UNL     1      16.319  -5.736   2.276  0.00  0.00    +0.000 C 
ATOM      9  C10 UNL     1      16.315  -4.235   1.995  0.00  0.00    +0.000 C 
ATOM     10  C11 UNL     1      16.822  -4.099   0.558  0.00  0.00    +0.000 C 
ATOM     11  C12 UNL     1      15.698  -4.337  -0.453  0.00  0.00    +0.000 C 
ATOM     12  C13 UNL     1      17.943  -5.149   0.527  0.00  0.00    +0.000 C 
BRANCH  12  13
ATOM     13  C14 UNL     1      18.413  -5.504  -0.880  0.00  0.00    +0.000 C 
ATOM     14  O2  UNL     1      18.812  -4.645  -1.665  0.00  0.00    +0.000 OA
BRANCH  13  15
ATOM     15  C15 UNL     1      18.395  -6.985  -1.240  0.00  0.00    +0.000 C 
BRANCH  15  16
ATOM     16  C16 UNL     1      17.251  -7.370  -2.189  0.00  0.00    +0.000 C 
ATOM     17  C17 UNL     1      17.818  -7.967  -3.479  0.00  0.00    +0.000 C 
ATOM     18  C18 UNL     1      16.294  -8.369  -1.534  0.00  0.00    +0.000 C 
ENDBRANCH  15  16
ENDBRANCH  13  15
ENDBRANCH  12  13
ENDBRANCH   4   7
BRANCH   1  20
ATOM     19  C1  UNL     1      22.880  -9.177   3.327  0.00  0.00    +0.000 C 
ATOM     20  C2  UNL     1      21.604  -9.132   4.155  0.00  0.00    +0.000 C 
ENDBRANCH   1  20
BRANCH   3  21
ATOM     21  C6  UNL     1      17.062  -9.240   2.129  0.00  0.00    +0.000 C 
ATOM     22  N1  UNL     1      16.034  -9.461   2.897  0.00  0.00    +0.000 NA
BRANCH  22  23
ATOM     23  O1  UNL     1      16.137  -8.812   4.131  0.00  0.00    +0.000 OA
ATOM     24  H   UNL     1      15.485  -8.950   4.789  0.00  0.00    +0.000 HD
ENDBRANCH  22  23
ENDBRANCH   3  21
TORSDOF 7
ENDMDL
MODEL 2
REMARK VINA RESULT:    -6.184     24.574     27.122
REMARK INTER + INTRA:         -10.020
REMARK INTER:                  -8.438
REMARK INTRA:                  -1.582
REMARK UNBOUND:                -1.486
REMARK  Name = laboratorio_evolutivo\Gen7_Mutante_6.pdb
REMARK  11 active torsions:
REMARK  status: ('A' for Active; 'I' for Inactive)
REMARK    1  A    between atoms: C1_1  and  C2_2
REMARK    2  A    between atoms: C2_2  and  C3_3
REMARK    3  A    between atoms: C5_5  and  C6_6
REMARK    4  A    between atoms: N1_7  and  O1_8
REMARK    5  A    between atoms: C7_9  and  C8_10
REMARK    6  A    between atoms: C11_13  and  C12_14
REMARK    7  A    between atoms: C13_15  and  C14_16
REMARK    8  A    between atoms: C14_16  and  C15_18
REMARK    9  A    between atoms: C15_18  and  C16_19
REMARK   10  A    between atoms: C16_19  and  C17_20
REMARK   11  A    between atoms: C16_19  and  C18_21
REMARK                            x       y       z     vdW  Elec       q    Type
REMARK                         _______ _______ _______ _____ _____    ______ ____
ROOT
ATOM      1  C3  UNL     1       2.986   1.797  21.988  0.00  0.00    +0.000 C 
ATOM      2  C4  UNL     1       2.405   2.233  20.808  0.00  0.00    +0.000 C 
ATOM      3  C5  UNL     1       1.735   1.308  20.002  0.00  0.00    +0.000 C 
ATOM      4  C7  UNL     1       1.635  -0.035  20.388  0.00  0.00    +0.000 C 
ATOM      5  C19 UNL     1       2.268  -0.365  21.586  0.00  0.00    +0.000 C 
ATOM      6  N2  UNL     1       2.926   0.506  22.383  0.00  0.00    +0.000 NA
ENDROOT
BRANCH   4   7
ATOM      7  C8  UNL     1       0.924  -1.095  19.571  0.00  0.00    +0.000 C 
ATOM      8  C9  UNL     1       1.837  -1.754  18.512  0.00  0.00    +0.000 C 
ATOM      9  C10 UNL     1       1.793  -3.255  18.787  0.00  0.00    +0.000 C 
ATOM     10  C11 UNL     1       0.458  -3.489  19.496  0.00  0.00    +0.000 C 
ATOM     11  C12 UNL     1      -0.694  -3.595  18.493  0.00  0.00    +0.000 C 
ATOM     12  C13 UNL     1       0.386  -2.269  20.427  0.00  0.00    +0.000 C 
BRANCH  12  13
ATOM     13  C14 UNL     1      -1.000  -2.028  21.017  0.00  0.00    +0.000 C 
ATOM     14  O2  UNL     1      -1.537  -2.844  21.764  0.00  0.00    +0.000 OA
BRANCH  13  15
ATOM     15  C15 UNL     1      -1.662  -0.702  20.656  0.00  0.00    +0.000 C 
BRANCH  15  16
ATOM     16  C16 UNL     1      -2.785  -0.842  19.619  0.00  0.00    +0.000 C 
ATOM     17  C17 UNL     1      -4.132  -0.489  20.254  0.00  0.00    +0.000 C 
ATOM     18  C18 UNL     1      -2.537   0.054  18.403  0.00  0.00    +0.000 C 
ENDBRANCH  15  16
ENDBRANCH  13  15
ENDBRANCH  12  13
ENDBRANCH   4   7
BRANCH   1  20
ATOM     19  C1  UNL     1       3.119   2.846  24.256  0.00  0.00    +0.000 C 
ATOM     20  C2  UNL     1       3.742   2.752  22.872  0.00  0.00    +0.000 C 
ENDBRANCH   1  20
BRANCH   3  21
ATOM     21  C6  UNL     1       1.095   1.808  18.767  0.00  0.00    +0.000 C 
ATOM     22  N1  UNL     1       1.642   1.974  17.597  0.00  0.00    +0.000 NA
BRANCH  22  23
ATOM     23  O1  UNL     1       2.972   1.545  17.561  0.00  0.00    +0.000 OA
ATOM     24  H   UNL     1       3.366   1.309  16.744  0.00  0.00    +0.000 HD
ENDBRANCH  22  23
ENDBRANCH   3  21
TORSDOF 7
ENDMDL
MODEL 3
REMARK VINA RESULT:    -6.046     22.734     25.080
REMARK INTER + INTRA:          -9.830
REMARK INTER:                  -8.385
REMARK INTRA:                  -1.444
REMARK UNBOUND:                -1.486
REMARK  Name = laboratorio_evolutivo\Gen7_Mutante_6.pdb
REMARK  11 active torsions:
REMARK  status: ('A' for Active; 'I' for Inactive)
REMARK    1  A    between atoms: C1_1  and  C2_2
REMARK    2  A    between atoms: C2_2  and  C3_3
REMARK    3  A    between atoms: C5_5  and  C6_6
REMARK    4  A    between atoms: N1_7  and  O1_8
REMARK    5  A    between atoms: C7_9  and  C8_10
REMARK    6  A    between atoms: C11_13  and  C12_14
REMARK    7  A    between atoms: C13_15  and  C14_16
REMARK    8  A    between atoms: C14_16  and  C15_18
REMARK    9  A    between atoms: C15_18  and  C16_19
REMARK   10  A    between atoms: C16_19  and  C17_20
REMARK   11  A    between atoms: C16_19  and  C18_21
REMARK                            x       y       z     vdW  Elec       q    Type
REMARK                         _______ _______ _______ _____ _____    ______ ____
ROOT
ATOM      1  C3  UNL     1       2.917   1.378  21.667  0.00  0.00    +0.000 C 
ATOM      2  C4  UNL     1       2.173   0.284  22.081  0.00  0.00    +0.000 C 
ATOM      3  C5  UNL     1       1.398  -0.400  21.140  0.00  0.00    +0.000 C 
ATOM      4  C7  UNL     1       1.387  -0.001  19.798  0.00  0.00    +0.000 C 
ATOM      5  C19 UNL     1       2.161   1.120  19.497  0.00  0.00    +0.000 C 
ATOM      6  N2  UNL     1       2.916   1.804  20.386  0.00  0.00    +0.000 NA
ENDROOT
BRANCH   4   7
ATOM      7  C8  UNL     1       0.576  -0.692  18.720  0.00  0.00    +0.000 C 
ATOM      8  C9  UNL     1      -0.649   0.132  18.264  0.00  0.00    +0.000 C 
ATOM      9  C10 UNL     1      -0.509   0.301  16.752  0.00  0.00    +0.000 C 
ATOM     10  C11 UNL     1       0.343  -0.885  16.299  0.00  0.00    +0.000 C 
ATOM     11  C12 UNL     1      -0.506  -2.146  16.123  0.00  0.00    +0.000 C 
ATOM     12  C13 UNL     1       1.383  -0.965  17.426  0.00  0.00    +0.000 C 
BRANCH  12  13
ATOM     13  C14 UNL     1       2.169  -2.273  17.445  0.00  0.00    +0.000 C 
ATOM     14  O2  UNL     1       1.944  -3.152  18.276  0.00  0.00    +0.000 OA
BRANCH  13  15
ATOM     15  C15 UNL     1       3.221  -2.440  16.354  0.00  0.00    +0.000 C 
BRANCH  15  16
ATOM     16  C16 UNL     1       2.658  -3.007  15.043  0.00  0.00    +0.000 C 
ATOM     17  C17 UNL     1       3.555  -2.605  13.870  0.00  0.00    +0.000 C 
ATOM     18  C18 UNL     1       2.535  -4.532  15.101  0.00  0.00    +0.000 C 
ENDBRANCH  15  16
ENDBRANCH  13  15
ENDBRANCH  12  13
ENDBRANCH   4   7
BRANCH   1  20
ATOM     19  C1  UNL     1       3.824   3.632  22.269  0.00  0.00    +0.000 C 
ATOM     20  C2  UNL     1       3.743   2.162  22.652  0.00  0.00    +0.000 C 
ENDBRANCH   1  20
BRANCH   3  21
ATOM     21  C6  UNL     1       0.642  -1.584  21.602  0.00  0.00    +0.000 C 
ATOM     22  N1  UNL     1       1.031  -2.826  21.603  0.00  0.00    +0.000 NA
BRANCH  22  23
ATOM     23  O1  UNL     1       2.351  -2.975  21.169  0.00  0.00    +0.000 OA
ATOM     24  H   UNL     1       2.580  -2.766  20.285  0.00  0.00    +0.000 HD
ENDBRANCH  22  23
ENDBRANCH   3  21
TORSDOF 7
ENDMDL
MODEL 4
REMARK VINA RESULT:    -6.031     24.203     26.719
REMARK INTER + INTRA:          -9.809
REMARK INTER:                  -8.147
REMARK INTRA:                  -1.661
REMARK UNBOUND:                -1.486
REMARK  Name = laboratorio_evolutivo\Gen7_Mutante_6.pdb
REMARK  11 active torsions:
REMARK  status: ('A' for Active; 'I' for Inactive)
REMARK    1  A    between atoms: C1_1  and  C2_2
REMARK    2  A    between atoms: C2_2  and  C3_3
REMARK    3  A    between atoms: C5_5  and  C6_6
REMARK    4  A    between atoms: N1_7  and  O1_8
REMARK    5  A    between atoms: C7_9  and  C8_10
REMARK    6  A    between atoms: C11_13  and  C12_14
REMARK    7  A    between atoms: C13_15  and  C14_16
REMARK    8  A    between atoms: C14_16  and  C15_18
REMARK    9  A    between atoms: C15_18  and  C16_19
REMARK   10  A    between atoms: C16_19  and  C17_20
REMARK   11  A    between atoms: C16_19  and  C18_21
REMARK                            x       y       z     vdW  Elec       q    Type
REMARK                         _______ _______ _______ _____ _____    ______ ____
ROOT
ATOM      1  C3  UNL     1       2.058   3.871  20.587  0.00  0.00    +0.000 C 
ATOM      2  C4  UNL     1       2.569   2.702  21.129  0.00  0.00    +0.000 C 
ATOM      3  C5  UNL     1       1.903   1.497  20.886  0.00  0.00    +0.000 C 
ATOM      4  C7  UNL     1       0.749   1.466  20.092  0.00  0.00    +0.000 C 
ATOM      5  C19 UNL     1       0.317   2.701  19.611  0.00  0.00    +0.000 C 
ATOM      6  N2  UNL     1       0.938   3.882  19.832  0.00  0.00    +0.000 NA
ENDROOT
BRANCH   4   7
ATOM      7  C8  UNL     1      -0.025   0.202  19.781  0.00  0.00    +0.000 C 
ATOM      8  C9  UNL     1      -1.303   0.049  20.639  0.00  0.00    +0.000 C 
ATOM      9  C10 UNL     1      -2.460  -0.106  19.654  0.00  0.00    +0.000 C 
ATOM     10  C11 UNL     1      -1.825  -0.670  18.382  0.00  0.00    +0.000 C 
ATOM     11  C12 UNL     1      -1.645  -2.187  18.477  0.00  0.00    +0.000 C 
ATOM     12  C13 UNL     1      -0.514   0.127  18.312  0.00  0.00    +0.000 C 
BRANCH  12  13
ATOM     13  C14 UNL     1       0.509  -0.456  17.343  0.00  0.00    +0.000 C 
ATOM     14  O2  UNL     1       0.317  -0.465  16.128  0.00  0.00    +0.000 OA
BRANCH  13  15
ATOM     15  C15 UNL     1       1.793  -0.993  17.965  0.00  0.00    +0.000 C 
BRANCH  15  16
ATOM     16  C16 UNL     1       1.828  -2.525  18.070  0.00  0.00    +0.000 C 
ATOM     17  C17 UNL     1       3.008  -3.078  17.267  0.00  0.00    +0.000 C 
ATOM     18  C18 UNL     1       1.934  -2.982  19.527  0.00  0.00    +0.000 C 
ENDBRANCH  15  16
ENDBRANCH  13  15
ENDBRANCH  12  13
ENDBRANCH   4   7
BRANCH   1  20
ATOM     19  C1  UNL     1       2.263   6.258  19.863  0.00  0.00    +0.000 C 
ATOM     20  C2  UNL     1       2.726   5.194  20.847  0.00  0.00    +0.000 C 
ENDBRANCH   1  20
BRANCH   3  21
ATOM     21  C6  UNL     1       2.489   0.261  21.447  0.00  0.00    +0.000 C 
ATOM     22  N1  UNL     1       2.166  -0.343  22.554  0.00  0.00    +0.000 NA
BRANCH  22  23
ATOM     23  O1  UNL     1       1.086   0.264  23.200  0.00  0.00    +0.000 OA
ATOM     24  H   UNL     1       0.326  -0.240  23.416  0.00  0.00    +0.000 HD
ENDBRANCH  22  23
ENDBRANCH   3  21
TORSDOF 7
ENDMDL
MODEL 5
REMARK VINA RESULT:    -6.014      1.709      2.080
REMARK INTER + INTRA:          -9.785
REMARK INTER:                  -8.718
REMARK INTRA:                  -1.067
REMARK UNBOUND:                -1.486
REMARK  Name = laboratorio_evolutivo\Gen7_Mutante_6.pdb
REMARK  11 active torsions:
REMARK  status: ('A' for Active; 'I' for Inactive)
REMARK    1  A    between atoms: C1_1  and  C2_2
REMARK    2  A    between atoms: C2_2  and  C3_3
REMARK    3  A    between atoms: C5_5  and  C6_6
REMARK    4  A    between atoms: N1_7  and  O1_8
REMARK    5  A    between atoms: C7_9  and  C8_10
REMARK    6  A    between atoms: C11_13  and  C12_14
REMARK    7  A    between atoms: C13_15  and  C14_16
REMARK    8  A    between atoms: C14_16  and  C15_18
REMARK    9  A    between atoms: C15_18  and  C16_19
REMARK   10  A    between atoms: C16_19  and  C17_20
REMARK   11  A    between atoms: C16_19  and  C18_21
REMARK                            x       y       z     vdW  Elec       q    Type
REMARK                         _______ _______ _______ _____ _____    ______ ____
ROOT
ATOM      1  C3  UNL     1      21.314  -9.177   3.450  0.00  0.00    +0.000 C 
ATOM      2  C4  UNL     1      20.171  -9.957   3.360  0.00  0.00    +0.000 C 
ATOM      3  C5  UNL     1      19.034  -9.421   2.749  0.00  0.00    +0.000 C 
ATOM      4  C7  UNL     1      19.052  -8.124   2.218  0.00  0.00    +0.000 C 
ATOM      5  C19 UNL     1      20.249  -7.427   2.378  0.00  0.00    +0.000 C 
ATOM      6  N2  UNL     1      21.362  -7.917   2.968  0.00  0.00    +0.000 NA
ENDROOT
BRANCH   4   7
ATOM      7  C8  UNL     1      17.864  -7.475   1.540  0.00  0.00    +0.000 C 
ATOM      8  C9  UNL     1      17.714  -5.976   1.885  0.00  0.00    +0.000 C 
ATOM      9  C10 UNL     1      17.707  -5.231   0.552  0.00  0.00    +0.000 C 
ATOM     10  C11 UNL     1      17.212  -6.255  -0.471  0.00  0.00    +0.000 C 
ATOM     11  C12 UNL     1      15.685  -6.353  -0.466  0.00  0.00    +0.000 C 
ATOM     12  C13 UNL     1      17.937  -7.527  -0.007  0.00  0.00    +0.000 C 
BRANCH  12  13
ATOM     13  C14 UNL     1      17.377  -8.809  -0.616  0.00  0.00    +0.000 C 
ATOM     14  O2  UNL     1      16.480  -9.448  -0.067  0.00  0.00    +0.000 OA
BRANCH  13  15
ATOM     15  C15 UNL     1      17.967  -9.230  -1.957  0.00  0.00    +0.000 C 
BRANCH  15  16
ATOM     16  C16 UNL     1      17.042  -8.945  -3.149  0.00  0.00    +0.000 C 
ATOM     17  C17 UNL     1      17.870  -8.549  -4.373  0.00  0.00    +0.000 C 
ATOM     18  C18 UNL     1      16.173 -10.160  -3.483  0.00  0.00    +0.000 C 
ENDBRANCH  15  16
ENDBRANCH  13  15
ENDBRANCH  12  13
ENDBRANCH   4   7
BRANCH   1  20
ATOM     19  C1  UNL     1      23.813  -9.293   3.383  0.00  0.00    +0.000 C 
ATOM     20  C2  UNL     1      22.551  -9.704   4.126  0.00  0.00    +0.000 C 
ENDBRANCH   1  20
BRANCH   3  21
ATOM     21  C6  UNL     1      17.841 -10.286   2.635  0.00  0.00    +0.000 C 
ATOM     22  N1  UNL     1      16.810 -10.331   3.429  0.00  0.00    +0.000 NA
BRANCH  22  23
ATOM     23  O1  UNL     1      16.875  -9.374   4.445  0.00  0.00    +0.000 OA
ATOM     24  H   UNL     1      17.545  -8.719   4.430  0.00  0.00    +0.000 HD
ENDBRANCH  22  23
ENDBRANCH   3  21
TORSDOF 7
ENDMDL
MODEL 6
REMARK VINA RESULT:    -5.621     25.366     27.267
REMARK INTER + INTRA:          -9.244
REMARK INTER:                  -8.032
REMARK INTRA:                  -1.212
REMARK UNBOUND:                -1.486
REMARK  Name = laboratorio_evolutivo\Gen7_Mutante_6.pdb
REMARK  11 active torsions:
REMARK  status: ('A' for Active; 'I' for Inactive)
REMARK    1  A    between atoms: C1_1  and  C2_2
REMARK    2  A    between atoms: C2_2  and  C3_3
REMARK    3  A    between atoms: C5_5  and  C6_6
REMARK    4  A    between atoms: N1_7  and  O1_8
REMARK    5  A    between atoms: C7_9  and  C8_10
REMARK    6  A    between atoms: C11_13  and  C12_14
REMARK    7  A    between atoms: C13_15  and  C14_16
REMARK    8  A    between atoms: C14_16  and  C15_18
REMARK    9  A    between atoms: C15_18  and  C16_19
REMARK   10  A    between atoms: C16_19  and  C17_20
REMARK   11  A    between atoms: C16_19  and  C18_21
REMARK                            x       y       z     vdW  Elec       q    Type
REMARK                         _______ _______ _______ _____ _____    ______ ____
ROOT
ATOM      1  C3  UNL     1      -2.286  -0.897  16.313  0.00  0.00    +0.000 C 
ATOM      2  C4  UNL     1      -2.879  -0.759  17.558  0.00  0.00    +0.000 C 
ATOM      3  C5  UNL     1      -2.171  -1.167  18.693  0.00  0.00    +0.000 C 
ATOM      4  C7  UNL     1      -0.876  -1.688  18.577  0.00  0.00    +0.000 C 
ATOM      5  C19 UNL     1      -0.385  -1.795  17.276  0.00  0.00    +0.000 C 
ATOM      6  N2  UNL     1      -1.048  -1.413  16.161  0.00  0.00    +0.000 NA
ENDROOT
BRANCH   4   7
ATOM      7  C8  UNL     1      -0.044  -2.148  19.757  0.00  0.00    +0.000 C 
ATOM      8  C9  UNL     1       0.538  -3.568  19.569  0.00  0.00    +0.000 C 
ATOM      9  C10 UNL     1       2.050  -3.433  19.741  0.00  0.00    +0.000 C 
ATOM     10  C11 UNL     1       2.240  -2.192  20.614  0.00  0.00    +0.000 C 
ATOM     11  C12 UNL     1       2.056  -2.522  22.098  0.00  0.00    +0.000 C 
ATOM     12  C13 UNL     1       1.182  -1.242  20.033  0.00  0.00    +0.000 C 
BRANCH  12  13
ATOM     13  C14 UNL     1       0.882  -0.040  20.922  0.00  0.00    +0.000 C 
ATOM     14  O2  UNL     1      -0.007  -0.069  21.773  0.00  0.00    +0.000 OA
BRANCH  13  15
ATOM     15  C15 UNL     1       1.769   1.183  20.720  0.00  0.00    +0.000 C 
BRANCH  15  16
ATOM     16  C16 UNL     1       3.073   1.134  21.529  0.00  0.00    +0.000 C 
ATOM     17  C17 UNL     1       3.994   2.283  21.111  0.00  0.00    +0.000 C 
ATOM     18  C18 UNL     1       2.801   1.212  23.033  0.00  0.00    +0.000 C 
ENDBRANCH  15  16
ENDBRANCH  13  15
ENDBRANCH  12  13
ENDBRANCH   4   7
BRANCH   1  20
ATOM     19  C1  UNL     1      -3.263   1.002  15.009  0.00  0.00    +0.000 C 
ATOM     20  C2  UNL     1      -3.024  -0.499  15.063  0.00  0.00    +0.000 C 
ENDBRANCH   1  20
BRANCH   3  21
ATOM     21  C6  UNL     1      -2.813  -0.976  20.010  0.00  0.00    +0.000 C 
ATOM     22  N1  UNL     1      -3.678  -1.753  20.596  0.00  0.00    +0.000 NA
BRANCH  22  23
ATOM     23  O1  UNL     1      -3.929  -2.919  19.867  0.00  0.00    +0.000 OA
ATOM     24  H   UNL     1      -3.465  -3.708  20.070  0.00  0.00    +0.000 HD
ENDBRANCH  22  23
ENDBRANCH   3  21
TORSDOF 7
ENDMDL
MODEL 7
REMARK VINA RESULT:    -5.583      2.621      5.969
REMARK INTER + INTRA:          -9.190
REMARK INTER:                  -8.119
REMARK INTRA:                  -1.071
REMARK UNBOUND:                -1.486
REMARK  Name = laboratorio_evolutivo\Gen7_Mutante_6.pdb
REMARK  11 active torsions:
REMARK  status: ('A' for Active; 'I' for Inactive)
REMARK    1  A    between atoms: C1_1  and  C2_2
REMARK    2  A    between atoms: C2_2  and  C3_3
REMARK    3  A    between atoms: C5_5  and  C6_6
REMARK    4  A    between atoms: N1_7  and  O1_8
REMARK    5  A    between atoms: C7_9  and  C8_10
REMARK    6  A    between atoms: C11_13  and  C12_14
REMARK    7  A    between atoms: C13_15  and  C14_16
REMARK    8  A    between atoms: C14_16  and  C15_18
REMARK    9  A    between atoms: C15_18  and  C16_19
REMARK   10  A    between atoms: C16_19  and  C17_20
REMARK   11  A    between atoms: C16_19  and  C18_21
REMARK                            x       y       z     vdW  Elec       q    Type
REMARK                         _______ _______ _______ _____ _____    ______ ____
ROOT
ATOM      1  C3  UNL     1      17.627  -8.709  -3.695  0.00  0.00    +0.000 C 
ATOM      2  C4  UNL     1      17.956  -7.447  -3.225  0.00  0.00    +0.000 C 
ATOM      3  C5  UNL     1      17.509  -7.061  -1.957  0.00  0.00    +0.000 C 
ATOM      4  C7  UNL     1      16.759  -7.940  -1.166  0.00  0.00    +0.000 C 
ATOM      5  C19 UNL     1      16.476  -9.177  -1.744  0.00  0.00    +0.000 C 
ATOM      6  N2  UNL     1      16.890  -9.576  -2.968  0.00  0.00    +0.000 NA
ENDROOT
BRANCH   4   7
ATOM      7  C8  UNL     1      16.243  -7.597   0.216  0.00  0.00    +0.000 C 
ATOM      8  C9  UNL     1      14.747  -7.206   0.223  0.00  0.00    +0.000 C 
ATOM      9  C10 UNL     1      14.066  -8.148   1.214  0.00  0.00    +0.000 C 
ATOM     10  C11 UNL     1      15.172  -8.574   2.180  0.00  0.00    +0.000 C 
ATOM     11  C12 UNL     1      15.397  -7.520   3.268  0.00  0.00    +0.000 C 
ATOM     12  C13 UNL     1      16.358  -8.769   1.223  0.00  0.00    +0.000 C 
BRANCH  12  13
ATOM     13  C14 UNL     1      17.708  -8.856   1.927  0.00  0.00    +0.000 C 
ATOM     14  O2  UNL     1      18.285  -9.930   2.093  0.00  0.00    +0.000 OA
BRANCH  13  15
ATOM     15  C15 UNL     1      18.316  -7.533   2.381  0.00  0.00    +0.000 C 
BRANCH  15  16
ATOM     16  C16 UNL     1      19.840  -7.468   2.205  0.00  0.00    +0.000 C 
ATOM     17  C17 UNL     1      20.225  -6.202   1.436  0.00  0.00    +0.000 C 
ATOM     18  C18 UNL     1      20.559  -7.490   3.557  0.00  0.00    +0.000 C 
ENDBRANCH  15  16
ENDBRANCH  13  15
ENDBRANCH  12  13
ENDBRANCH   4   7
BRANCH   1  20
ATOM     19  C1  UNL     1      19.284 -10.059  -4.998  0.00  0.00    +0.000 C 
ATOM     20  C2  UNL     1      18.062  -9.155  -5.065  0.00  0.00    +0.000 C 
ENDBRANCH   1  20
BRANCH   3  21
ATOM     21  C6  UNL     1      17.904  -5.723  -1.467  0.00  0.00    +0.000 C 
ATOM     22  N1  UNL     1      17.278  -4.595  -1.640  0.00  0.00    +0.000 NA
BRANCH  22  23
ATOM     23  O1  UNL     1      16.065  -4.753  -2.316  0.00  0.00    +0.000 OA
ATOM     24  H   UNL     1      15.370  -4.139  -2.182  0.00  0.00    +0.000 HD
ENDBRANCH  22  23
ENDBRANCH   3  21
TORSDOF 7
ENDMDL
MODEL 8
REMARK VINA RESULT:    -5.527      2.010      3.646
REMARK INTER + INTRA:          -9.114
REMARK INTER:                  -8.435
REMARK INTRA:                  -0.679
REMARK UNBOUND:                -1.486
REMARK  Name = laboratorio_evolutivo\Gen7_Mutante_6.pdb
REMARK  11 active torsions:
REMARK  status: ('A' for Active; 'I' for Inactive)
REMARK    1  A    between atoms: C1_1  and  C2_2
REMARK    2  A    between atoms: C2_2  and  C3_3
REMARK    3  A    between atoms: C5_5  and  C6_6
REMARK    4  A    between atoms: N1_7  and  O1_8
REMARK    5  A    between atoms: C7_9  and  C8_10
REMARK    6  A    between atoms: C11_13  and  C12_14
REMARK    7  A    between atoms: C13_15  and  C14_16
REMARK    8  A    between atoms: C14_16  and  C15_18
REMARK    9  A    between atoms: C15_18  and  C16_19
REMARK   10  A    between atoms: C16_19  and  C17_20
REMARK   11  A    between atoms: C16_19  and  C18_21
REMARK                            x       y       z     vdW  Elec       q    Type
REMARK                         _______ _______ _______ _____ _____    ______ ____
ROOT
ATOM      1  C3  UNL     1      20.198  -8.552   3.539  0.00  0.00    +0.000 C 
ATOM      2  C4  UNL     1      19.035  -8.913   2.876  0.00  0.00    +0.000 C 
ATOM      3  C5  UNL     1      18.441  -7.996   2.004  0.00  0.00    +0.000 C 
ATOM      4  C7  UNL     1      19.020  -6.739   1.788  0.00  0.00    +0.000 C 
ATOM      5  C19 UNL     1      20.179  -6.477   2.517  0.00  0.00    +0.000 C 
ATOM      6  N2  UNL     1      20.773  -7.342   3.369  0.00  0.00    +0.000 NA
ENDROOT
BRANCH   4   7
ATOM      7  C8  UNL     1      18.438  -5.693   0.858  0.00  0.00    +0.000 C 
ATOM      8  C9  UNL     1      18.745  -5.971  -0.631  0.00  0.00    +0.000 C 
ATOM      9  C10 UNL     1      17.394  -6.017  -1.342  0.00  0.00    +0.000 C 
ATOM     10  C11 UNL     1      16.460  -5.174  -0.473  0.00  0.00    +0.000 C 
ATOM     11  C12 UNL     1      16.617  -3.681  -0.775  0.00  0.00    +0.000 C 
ATOM     12  C13 UNL     1      16.894  -5.590   0.940  0.00  0.00    +0.000 C 
BRANCH  12  13
ATOM     13  C14 UNL     1      16.388  -4.660   2.038  0.00  0.00    +0.000 C 
ATOM     14  O2  UNL     1      17.132  -3.859   2.602  0.00  0.00    +0.000 OA
BRANCH  13  15
ATOM     15  C15 UNL     1      14.902  -4.757   2.367  0.00  0.00    +0.000 C 
BRANCH  15  16
ATOM     16  C16 UNL     1      14.620  -5.374   3.745  0.00  0.00    +0.000 C 
ATOM     17  C17 UNL     1      13.130  -5.266   4.073  0.00  0.00    +0.000 C 
ATOM     18  C18 UNL     1      15.056  -6.841   3.799  0.00  0.00    +0.000 C 
ENDBRANCH  15  16
ENDBRANCH  13  15
ENDBRANCH  12  13
ENDBRANCH   4   7
BRANCH   1  20
ATOM     19  C1  UNL     1      22.306  -9.762   4.135  0.00  0.00    +0.000 C 
ATOM     20  C2  UNL     1      20.855  -9.497   4.508  0.00  0.00    +0.000 C 
ENDBRANCH   1  20
BRANCH   3  21
ATOM     21  C6  UNL     1      17.222  -8.421   1.285  0.00  0.00    +0.000 C 
ATOM     22  N1  UNL     1      17.146  -9.116   0.187  0.00  0.00    +0.000 NA
BRANCH  22  23
ATOM     23  O1  UNL     1      18.400  -9.534  -0.270  0.00  0.00    +0.000 OA
ATOM     24  H   UNL     1      18.956 -10.042   0.288  0.00  0.00    +0.000 HD
ENDBRANCH  22  23
ENDBRANCH   3  21
TORSDOF 7
ENDMDL
MODEL 9
REMARK VINA RESULT:    -5.511     26.200     28.969
REMARK INTER + INTRA:          -9.091
REMARK INTER:                  -7.688
REMARK INTRA:                  -1.403
REMARK UNBOUND:                -1.486
REMARK  Name = laboratorio_evolutivo\Gen7_Mutante_6.pdb
REMARK  11 active torsions:
REMARK  status: ('A' for Active; 'I' for Inactive)
REMARK    1  A    between atoms: C1_1  and  C2_2
REMARK    2  A    between atoms: C2_2  and  C3_3
REMARK    3  A    between atoms: C5_5  and  C6_6
REMARK    4  A    between atoms: N1_7  and  O1_8
REMARK    5  A    between atoms: C7_9  and  C8_10
REMARK    6  A    between atoms: C11_13  and  C12_14
REMARK    7  A    between atoms: C13_15  and  C14_16
REMARK    8  A    between atoms: C14_16  and  C15_18
REMARK    9  A    between atoms: C15_18  and  C16_19
REMARK   10  A    between atoms: C16_19  and  C17_20
REMARK   11  A    between atoms: C16_19  and  C18_21
REMARK                            x       y       z     vdW  Elec       q    Type
REMARK                         _______ _______ _______ _____ _____    ______ ____
ROOT
ATOM      1  C3  UNL     1      -5.179   1.488  20.766  0.00  0.00    +0.000 C 
ATOM      2  C4  UNL     1      -5.026   0.115  20.660  0.00  0.00    +0.000 C 
ATOM      3  C5  UNL     1      -3.851  -0.393  20.096  0.00  0.00    +0.000 C 
ATOM      4  C7  UNL     1      -2.837   0.470  19.662  0.00  0.00    +0.000 C 
ATOM      5  C19 UNL     1      -3.104   1.832  19.804  0.00  0.00    +0.000 C 
ATOM      6  N2  UNL     1      -4.231   2.351  20.341  0.00  0.00    +0.000 NA
ENDROOT
BRANCH   4   7
ATOM      7  C8  UNL     1      -1.537  -0.002  19.044  0.00  0.00    +0.000 C 
ATOM      8  C9  UNL     1      -1.617  -0.152  17.508  0.00  0.00    +0.000 C 
ATOM      9  C10 UNL     1      -0.498   0.716  16.937  0.00  0.00    +0.000 C 
ATOM     10  C11 UNL     1       0.542   0.808  18.054  0.00  0.00    +0.000 C 
ATOM     11  C12 UNL     1       1.449  -0.425  18.074  0.00  0.00    +0.000 C 
ATOM     12  C13 UNL     1      -0.352   0.965  19.294  0.00  0.00    +0.000 C 
BRANCH  12  13
ATOM     13  C14 UNL     1       0.379   0.730  20.612  0.00  0.00    +0.000 C 
ATOM     14  O2  UNL     1       0.154  -0.258  21.310  0.00  0.00    +0.000 OA
BRANCH  13  15
ATOM     15  C15 UNL     1       1.427   1.770  20.994  0.00  0.00    +0.000 C 
BRANCH  15  16
ATOM     16  C16 UNL     1       2.781   1.159  21.382  0.00  0.00    +0.000 C 
ATOM     17  C17 UNL     1       3.915   1.907  20.676  0.00  0.00    +0.000 C 
ATOM     18  C18 UNL     1       2.999   1.201  22.896  0.00  0.00    +0.000 C 
ENDBRANCH  15  16
ENDBRANCH  13  15
ENDBRANCH  12  13
ENDBRANCH   4   7
BRANCH   1  20
ATOM     19  C1  UNL     1      -6.156   2.891  22.594  0.00  0.00    +0.000 C 
ATOM     20  C2  UNL     1      -6.439   2.078  21.340  0.00  0.00    +0.000 C 
ENDBRANCH   1  20
BRANCH   3  21
ATOM     21  C6  UNL     1      -3.699  -1.861  20.027  0.00  0.00    +0.000 C 
ATOM     22  N1  UNL     1      -2.984  -2.625  20.801  0.00  0.00    +0.000 NA
BRANCH  22  23
ATOM     23  O1  UNL     1      -2.370  -1.914  21.836  0.00  0.00    +0.000 OA
ATOM     24  H   UNL     1      -2.801  -1.827  22.664  0.00  0.00    +0.000 HD
ENDBRANCH  22  23
ENDBRANCH   3  21
TORSDOF 7
ENDMDL
