REMARK  Name = laboratorio_evolutivo\Gen7_Mutante_5.pdb
REMARK  10 active torsions:
REMARK  status: ('A' for Active; 'I' for Inactive)
REMARK    1  A    between atoms: C1_1  and  C2_2
REMARK    2  A    between atoms: C4_4  and  C5_5
REMARK    3  A    between atoms: N1_6  and  O1_7
REMARK    4  A    between atoms: C6_8  and  C7_9
REMARK    5  A    between atoms: C10_12  and  C11_13
REMARK    6  A    between atoms: C12_14  and  C13_15
REMARK    7  A    between atoms: C13_15  and  C14_17
REMARK    8  A    between atoms: C14_17  and  C15_18
REMARK    9  A    between atoms: C15_18  and  C16_19
REMARK   10  A    between atoms: C15_18  and  C17_20
REMARK                            x       y       z     vdW  Elec       q    Type
REMARK                         _______ _______ _______ _____ _____    ______ ____
ROOT
ATOM      1  C1  UNL     1      -3.068   3.574   1.214  0.00  0.00    +0.000 C 
ATOM      2  C2  UNL     1      -2.539   2.255   0.738  0.00  0.00    +0.000 C 
ATOM      3  C3  UNL     1      -2.119   2.099  -0.570  0.00  0.00    +0.000 C 
ATOM      4  C4  UNL     1      -1.622   0.856  -0.969  0.00  0.00    +0.000 C 
ATOM      5  C6  UNL     1      -1.562  -0.225  -0.076  0.00  0.00    +0.000 C 
ATOM      6  C18 UNL     1      -1.999   0.056   1.217  0.00  0.00    +0.000 C 
ATOM      7  F1  UNL     1      -1.939  -0.900   2.155  0.00  0.00    +0.000 F 
ATOM      8  N2  UNL     1      -2.488   1.247   1.630  0.00  0.00    +0.000 NA
ENDROOT
BRANCH   5   9
ATOM      9  C7  UNL     1      -1.006  -1.577  -0.469  0.00  0.00    +0.000 C 
ATOM     10  C8  UNL     1      -1.673  -2.822   0.160  0.00  0.00    +0.000 C 
ATOM     11  C9  UNL     1      -0.571  -3.552   0.912  0.00  0.00    +0.000 C 
ATOM     12  C10 UNL     1       0.706  -3.241   0.130  0.00  0.00    +0.000 C 
ATOM     13  C11 UNL     1       0.874  -4.163  -1.079  0.00  0.00    +0.000 C 
ATOM     14  C12 UNL     1       0.523  -1.770  -0.296  0.00  0.00    +0.000 C 
BRANCH  14  15
ATOM     15  C13 UNL     1       1.195  -0.841   0.720  0.00  0.00    +0.000 C 
ATOM     16  O2  UNL     1       1.063  -1.005   1.932  0.00  0.00    +0.000 OA
BRANCH  15  17
ATOM     17  C14 UNL     1       2.070   0.263   0.141  0.00  0.00    +0.000 C 
BRANCH  17  18
ATOM     18  C15 UNL     1       2.524   1.311   1.167  0.00  0.00    +0.000 C 
ATOM     19  C16 UNL     1       3.640   2.172   0.572  0.00  0.00    +0.000 C 
ATOM     20  C17 UNL     1       1.365   2.207   1.609  0.00  0.00    +0.000 C 
ENDBRANCH  17  18
ENDBRANCH  15  17
ENDBRANCH  14  15
ENDBRANCH   5   9
BRANCH   4  21
ATOM     21  C5  UNL     1      -1.219   0.705  -2.383  0.00  0.00    +0.000 C 
ATOM     22  N1  UNL     1      -0.381   1.437  -3.056  0.00  0.00    +0.000 NA
BRANCH  22  23
ATOM     23  O1  UNL     1       0.206   2.434  -2.272  0.00  0.00    +0.000 OA
ATOM     24  H   UNL     1       0.828   3.023  -2.652  0.00  0.00    +0.000 HD
ENDBRANCH  22  23
ENDBRANCH   4  21
TORSDOF 6
