MODEL 1
REMARK VINA RESULT:    -9.219      0.000      0.000
REMARK INTER + INTRA:         -13.523
REMARK INTER:                 -11.913
REMARK INTRA:                  -1.610
REMARK UNBOUND:                -1.610
REMARK  Name = laboratorio_evolutivo\Gen7_Mutante_2.pdb
REMARK  10 active torsions:
REMARK  status: ('A' for Active; 'I' for Inactive)
REMARK    1  A    between atoms: C1_1  and  C2_2
REMARK    2  A    between atoms: C2_2  and  C3_4
REMARK    3  A    between atoms: C5_6  and  C6_7
REMARK    4  A    between atoms: C8_10  and  C9_11
REMARK    5  A    between atoms: C12_14  and  C13_15
REMARK    6  A    between atoms: C14_16  and  C15_17
REMARK    7  A    between atoms: C15_17  and  C16_19
REMARK    8  A    between atoms: C16_19  and  C17_20
REMARK    9  A    between atoms: C17_20  and  C18_21
REMARK   10  A    between atoms: C17_20  and  C19_22
REMARK                            x       y       z     vdW  Elec       q    Type
REMARK                         _______ _______ _______ _____ _____    ______ ____
ROOT
ATOM      1  C9  UNL     1       2.275  67.261  64.484  0.00  0.00    +0.000 C 
ATOM      2  C10 UNL     1       0.901  67.547  63.841  0.00  0.00    +0.000 C 
ATOM      3  C11 UNL     1       0.101  68.214  64.953  0.00  0.00    +0.000 C 
ATOM      4  C12 UNL     1       0.483  67.389  66.179  0.00  0.00    +0.000 C 
ATOM      5  C13 UNL     1       0.053  68.008  67.498  0.00  0.00    +0.000 C 
ATOM      6  C14 UNL     1       1.985  67.085  65.997  0.00  0.00    +0.000 C 
ENDROOT
BRANCH   1  13
ATOM      7  C3  UNL     1       4.028  66.249  62.900  0.00  0.00    +0.000 C 
ATOM      8  C4  UNL     1       4.776  65.156  62.446  0.00  0.00    +0.000 C 
ATOM      9  C5  UNL     1       4.576  63.921  63.038  0.00  0.00    +0.000 C 
ATOM     10  C6  UNL     1       5.350  62.722  62.579  0.00  0.00    +0.000 C 
ATOM     11  N1  UNL     1       3.692  63.744  64.040  0.00  0.00    +0.000 NA
ATOM     12  C7  UNL     1       2.977  64.817  64.454  0.00  0.00    +0.000 C 
ATOM     13  C8  UNL     1       3.072  66.099  63.920  0.00  0.00    +0.000 C 
BRANCH   7  15
ATOM     14  C1  UNL     1       5.329  68.450  62.872  0.00  0.00    +0.000 C 
ATOM     15  C2  UNL     1       4.292  67.554  62.248  0.00  0.00    +0.000 C 
ATOM     16  O1  UNL     1       3.694  67.858  61.221  0.00  0.00    +0.000 OA
ENDBRANCH   7  15
ENDBRANCH   1  13
BRANCH   6  17
ATOM     17  C15 UNL     1       2.952  67.886  66.875  0.00  0.00    +0.000 C 
ATOM     18  O2  UNL     1       3.122  69.085  66.632  0.00  0.00    +0.000 OA
BRANCH  17  19
ATOM     19  C16 UNL     1       3.640  67.208  68.054  0.00  0.00    +0.000 C 
BRANCH  19  20
ATOM     20  C17 UNL     1       4.467  65.978  67.643  0.00  0.00    +0.000 C 
ATOM     21  C18 UNL     1       5.508  66.330  66.576  0.00  0.00    +0.000 C 
ATOM     22  C19 UNL     1       5.174  65.385  68.866  0.00  0.00    +0.000 C 
ENDBRANCH  19  20
ENDBRANCH  17  19
ENDBRANCH   6  17
TORSDOF 5
ENDMDL
MODEL 2
REMARK VINA RESULT:    -8.411      2.097      4.076
REMARK INTER + INTRA:         -12.480
REMARK INTER:                 -11.356
REMARK INTRA:                  -1.124
REMARK UNBOUND:                -1.610
REMARK  Name = laboratorio_evolutivo\Gen7_Mutante_2.pdb
REMARK  10 active torsions:
REMARK  status: ('A' for Active; 'I' for Inactive)
REMARK    1  A    between atoms: C1_1  and  C2_2
REMARK    2  A    between atoms: C2_2  and  C3_4
REMARK    3  A    between atoms: C5_6  and  C6_7
REMARK    4  A    between atoms: C8_10  and  C9_11
REMARK    5  A    between atoms: C12_14  and  C13_15
REMARK    6  A    between atoms: C14_16  and  C15_17
REMARK    7  A    between atoms: C15_17  and  C16_19
REMARK    8  A    between atoms: C16_19  and  C17_20
REMARK    9  A    between atoms: C17_20  and  C18_21
REMARK   10  A    between atoms: C17_20  and  C19_22
REMARK                            x       y       z     vdW  Elec       q    Type
REMARK                         _______ _______ _______ _____ _____    ______ ____
ROOT
ATOM      1  C9  UNL     1       3.220  67.952  66.219  0.00  0.00    +0.000 C 
ATOM      2  C10 UNL     1       2.908  68.849  67.436  0.00  0.00    +0.000 C 
ATOM      3  C11 UNL     1       3.253  67.979  68.639  0.00  0.00    +0.000 C 
ATOM      4  C12 UNL     1       2.703  66.614  68.230  0.00  0.00    +0.000 C 
ATOM      5  C13 UNL     1       3.160  65.472  69.122  0.00  0.00    +0.000 C 
ATOM      6  C14 UNL     1       3.012  66.500  66.722  0.00  0.00    +0.000 C 
ENDROOT
BRANCH   1  13
ATOM      7  C3  UNL     1       3.057  68.320  63.680  0.00  0.00    +0.000 C 
ATOM      8  C4  UNL     1       2.296  68.525  62.524  0.00  0.00    +0.000 C 
ATOM      9  C5  UNL     1       0.919  68.611  62.640  0.00  0.00    +0.000 C 
ATOM     10  C6  UNL     1       0.065  68.838  61.429  0.00  0.00    +0.000 C 
ATOM     11  N1  UNL     1       0.294  68.497  63.828  0.00  0.00    +0.000 NA
ATOM     12  C7  UNL     1       1.056  68.305  64.932  0.00  0.00    +0.000 C 
ATOM     13  C8  UNL     1       2.445  68.227  64.943  0.00  0.00    +0.000 C 
BRANCH   7  15
ATOM     14  C1  UNL     1       5.365  69.398  63.904  0.00  0.00    +0.000 C 
ATOM     15  C2  UNL     1       4.524  68.214  63.502  0.00  0.00    +0.000 C 
ATOM     16  O1  UNL     1       5.016  67.178  63.066  0.00  0.00    +0.000 OA
ENDBRANCH   7  15
ENDBRANCH   1  13
BRANCH   6  17
ATOM     17  C15 UNL     1       4.169  65.575  66.334  0.00  0.00    +0.000 C 
ATOM     18  O2  UNL     1       5.314  66.035  66.301  0.00  0.00    +0.000 OA
BRANCH  17  19
ATOM     19  C16 UNL     1       3.896  64.103  66.048  0.00  0.00    +0.000 C 
BRANCH  19  20
ATOM     20  C17 UNL     1       3.443  63.844  64.601  0.00  0.00    +0.000 C 
ATOM     21  C18 UNL     1       2.451  64.908  64.122  0.00  0.00    +0.000 C 
ATOM     22  C19 UNL     1       4.655  63.822  63.664  0.00  0.00    +0.000 C 
ENDBRANCH  19  20
ENDBRANCH  17  19
ENDBRANCH   6  17
TORSDOF 5
ENDMDL
MODEL 3
REMARK VINA RESULT:    -7.820      5.912      8.689
REMARK INTER + INTRA:         -11.716
REMARK INTER:                 -10.181
REMARK INTRA:                  -1.535
REMARK UNBOUND:                -1.610
REMARK  Name = laboratorio_evolutivo\Gen7_Mutante_2.pdb
REMARK  10 active torsions:
REMARK  status: ('A' for Active; 'I' for Inactive)
REMARK    1  A    between atoms: C1_1  and  C2_2
REMARK    2  A    between atoms: C2_2  and  C3_4
REMARK    3  A    between atoms: C5_6  and  C6_7
REMARK    4  A    between atoms: C8_10  and  C9_11
REMARK    5  A    between atoms: C12_14  and  C13_15
REMARK    6  A    between atoms: C14_16  and  C15_17
REMARK    7  A    between atoms: C15_17  and  C16_19
REMARK    8  A    between atoms: C16_19  and  C17_20
REMARK    9  A    between atoms: C17_20  and  C18_21
REMARK   10  A    between atoms: C17_20  and  C19_22
REMARK                            x       y       z     vdW  Elec       q    Type
REMARK                         _______ _______ _______ _____ _____    ______ ____
ROOT
ATOM      1  C9  UNL     1       2.871  61.957  69.894  0.00  0.00    +0.000 C 
ATOM      2  C10 UNL     1       3.744  61.007  69.048  0.00  0.00    +0.000 C 
ATOM      3  C11 UNL     1       4.013  59.825  69.973  0.00  0.00    +0.000 C 
ATOM      4  C12 UNL     1       4.278  60.506  71.313  0.00  0.00    +0.000 C 
ATOM      5  C13 UNL     1       4.294  59.553  72.497  0.00  0.00    +0.000 C 
ATOM      6  C14 UNL     1       3.276  61.679  71.365  0.00  0.00    +0.000 C 
ENDROOT
BRANCH   1  13
ATOM      7  C3  UNL     1       1.841  64.306  69.715  0.00  0.00    +0.000 C 
ATOM      8  C4  UNL     1       1.961  65.673  69.440  0.00  0.00    +0.000 C 
ATOM      9  C5  UNL     1       3.189  66.163  69.029  0.00  0.00    +0.000 C 
ATOM     10  C6  UNL     1       3.362  67.619  68.716  0.00  0.00    +0.000 C 
ATOM     11  N1  UNL     1       4.268  65.367  68.896  0.00  0.00    +0.000 NA
ATOM     12  C7  UNL     1       4.121  64.047  69.163  0.00  0.00    +0.000 C 
ATOM     13  C8  UNL     1       2.935  63.436  69.557  0.00  0.00    +0.000 C 
BRANCH   7  15
ATOM     14  C1  UNL     1       0.034  64.287  71.525  0.00  0.00    +0.000 C 
ATOM     15  C2  UNL     1       0.512  63.833  70.170  0.00  0.00    +0.000 C 
ATOM     16  O1  UNL     1      -0.167  63.119  69.440  0.00  0.00    +0.000 OA
ENDBRANCH   7  15
ENDBRANCH   1  13
BRANCH   6  17
ATOM     17  C15 UNL     1       2.063  61.497  72.282  0.00  0.00    +0.000 C 
ATOM     18  O2  UNL     1       2.054  62.068  73.377  0.00  0.00    +0.000 OA
BRANCH  17  19
ATOM     19  C16 UNL     1       0.877  60.664  71.810  0.00  0.00    +0.000 C 
BRANCH  19  20
ATOM     20  C17 UNL     1       0.600  59.446  72.709  0.00  0.00    +0.000 C 
ATOM     21  C18 UNL     1      -0.876  59.368  73.111  0.00  0.00    +0.000 C 
ATOM     22  C19 UNL     1       0.999  58.155  71.987  0.00  0.00    +0.000 C 
ENDBRANCH  19  20
ENDBRANCH  17  19
ENDBRANCH   6  17
TORSDOF 5
ENDMDL
MODEL 4
REMARK VINA RESULT:    -7.790      2.345      4.705
REMARK INTER + INTRA:         -11.677
REMARK INTER:                 -11.411
REMARK INTRA:                  -0.267
REMARK UNBOUND:                -1.610
REMARK  Name = laboratorio_evolutivo\Gen7_Mutante_2.pdb
REMARK  10 active torsions:
REMARK  status: ('A' for Active; 'I' for Inactive)
REMARK    1  A    between atoms: C1_1  and  C2_2
REMARK    2  A    between atoms: C2_2  and  C3_4
REMARK    3  A    between atoms: C5_6  and  C6_7
REMARK    4  A    between atoms: C8_10  and  C9_11
REMARK    5  A    between atoms: C12_14  and  C13_15
REMARK    6  A    between atoms: C14_16  and  C15_17
REMARK    7  A    between atoms: C15_17  and  C16_19
REMARK    8  A    between atoms: C16_19  and  C17_20
REMARK    9  A    between atoms: C17_20  and  C18_21
REMARK   10  A    between atoms: C17_20  and  C19_22
REMARK                            x       y       z     vdW  Elec       q    Type
REMARK                         _______ _______ _______ _____ _____    ______ ____
ROOT
ATOM      1  C9  UNL     1       3.127  67.984  66.238  0.00  0.00    +0.000 C 
ATOM      2  C10 UNL     1       2.766  68.914  67.415  0.00  0.00    +0.000 C 
ATOM      3  C11 UNL     1       3.088  68.089  68.655  0.00  0.00    +0.000 C 
ATOM      4  C12 UNL     1       2.571  66.703  68.275  0.00  0.00    +0.000 C 
ATOM      5  C13 UNL     1       3.019  65.598  69.218  0.00  0.00    +0.000 C 
ATOM      6  C14 UNL     1       2.927  66.545  66.782  0.00  0.00    +0.000 C 
ENDROOT
BRANCH   1  13
ATOM      7  C3  UNL     1       0.984  68.237  64.841  0.00  0.00    +0.000 C 
ATOM      8  C4  UNL     1       0.345  68.494  63.623  0.00  0.00    +0.000 C 
ATOM      9  C5  UNL     1       1.122  68.741  62.504  0.00  0.00    +0.000 C 
ATOM     10  C6  UNL     1       0.480  69.014  61.176  0.00  0.00    +0.000 C 
ATOM     11  N1  UNL     1       2.469  68.749  62.556  0.00  0.00    +0.000 NA
ATOM     12  C7  UNL     1       3.060  68.491  63.747  0.00  0.00    +0.000 C 
ATOM     13  C8  UNL     1       2.387  68.204  64.931  0.00  0.00    +0.000 C 
BRANCH   7  15
ATOM     14  C1  UNL     1      -0.326  69.196  66.817  0.00  0.00    +0.000 C 
ATOM     15  C2  UNL     1       0.110  67.998  66.014  0.00  0.00    +0.000 C 
ATOM     16  O1  UNL     1      -0.255  66.859  66.285  0.00  0.00    +0.000 OA
ENDBRANCH   7  15
ENDBRANCH   1  13
BRANCH   6  17
ATOM     17  C15 UNL     1       4.109  65.626  66.458  0.00  0.00    +0.000 C 
ATOM     18  O2  UNL     1       5.234  65.941  66.858  0.00  0.00    +0.000 OA
BRANCH  17  19
ATOM     19  C16 UNL     1       3.870  64.326  65.699  0.00  0.00    +0.000 C 
BRANCH  19  20
ATOM     20  C17 UNL     1       3.912  64.504  64.171  0.00  0.00    +0.000 C 
ATOM     21  C18 UNL     1       4.880  65.618  63.761  0.00  0.00    +0.000 C 
ATOM     22  C19 UNL     1       4.333  63.193  63.499  0.00  0.00    +0.000 C 
ENDBRANCH  19  20
ENDBRANCH  17  19
ENDBRANCH   6  17
TORSDOF 5
ENDMDL
MODEL 5
REMARK VINA RESULT:    -7.632      4.560      6.807
REMARK INTER + INTRA:         -11.473
REMARK INTER:                  -9.860
REMARK INTRA:                  -1.614
REMARK UNBOUND:                -1.610
REMARK  Name = laboratorio_evolutivo\Gen7_Mutante_2.pdb
REMARK  10 active torsions:
REMARK  status: ('A' for Active; 'I' for Inactive)
REMARK    1  A    between atoms: C1_1  and  C2_2
REMARK    2  A    between atoms: C2_2  and  C3_4
REMARK    3  A    between atoms: C5_6  and  C6_7
REMARK    4  A    between atoms: C8_10  and  C9_11
REMARK    5  A    between atoms: C12_14  and  C13_15
REMARK    6  A    between atoms: C14_16  and  C15_17
REMARK    7  A    between atoms: C15_17  and  C16_19
REMARK    8  A    between atoms: C16_19  and  C17_20
REMARK    9  A    between atoms: C17_20  and  C18_21
REMARK   10  A    between atoms: C17_20  and  C19_22
REMARK                            x       y       z     vdW  Elec       q    Type
REMARK                         _______ _______ _______ _____ _____    ______ ____
ROOT
ATOM      1  C9  UNL     1       0.962  64.690  70.329  0.00  0.00    +0.000 C 
ATOM      2  C10 UNL     1       0.161  64.857  71.638  0.00  0.00    +0.000 C 
ATOM      3  C11 UNL     1       0.136  63.457  72.240  0.00  0.00    +0.000 C 
ATOM      4  C12 UNL     1      -0.109  62.574  71.019  0.00  0.00    +0.000 C 
ATOM      5  C13 UNL     1       0.105  61.092  71.276  0.00  0.00    +0.000 C 
ATOM      6  C14 UNL     1       0.722  63.222  69.891  0.00  0.00    +0.000 C 
ENDROOT
BRANCH   1  13
ATOM      7  C3  UNL     1       1.660  66.179  68.353  0.00  0.00    +0.000 C 
ATOM      8  C4  UNL     1       1.334  67.043  67.302  0.00  0.00    +0.000 C 
ATOM      9  C5  UNL     1       0.005  67.376  67.103  0.00  0.00    +0.000 C 
ATOM     10  C6  UNL     1      -0.390  68.305  65.994  0.00  0.00    +0.000 C 
ATOM     11  N1  UNL     1      -0.979  66.887  67.884  0.00  0.00    +0.000 NA
ATOM     12  C7  UNL     1      -0.633  66.058  68.898  0.00  0.00    +0.000 C 
ATOM     13  C8  UNL     1       0.667  65.672  69.210  0.00  0.00    +0.000 C 
BRANCH   7  15
ATOM     14  C1  UNL     1       3.713  64.922  67.488  0.00  0.00    +0.000 C 
ATOM     15  C2  UNL     1       3.094  65.836  68.513  0.00  0.00    +0.000 C 
ATOM     16  O1  UNL     1       3.738  66.315  69.439  0.00  0.00    +0.000 OA
ENDBRANCH   7  15
ENDBRANCH   1  13
BRANCH   6  17
ATOM     17  C15 UNL     1       2.021  62.506  69.506  0.00  0.00    +0.000 C 
ATOM     18  O2  UNL     1       2.053  61.855  68.458  0.00  0.00    +0.000 OA
BRANCH  17  19
ATOM     19  C16 UNL     1       3.254  62.651  70.390  0.00  0.00    +0.000 C 
BRANCH  19  20
ATOM     20  C17 UNL     1       3.827  61.300  70.852  0.00  0.00    +0.000 C 
ATOM     21  C18 UNL     1       5.328  61.198  70.566  0.00  0.00    +0.000 C 
ATOM     22  C19 UNL     1       3.582  61.108  72.352  0.00  0.00    +0.000 C 
ENDBRANCH  19  20
ENDBRANCH  17  19
ENDBRANCH   6  17
TORSDOF 5
ENDMDL
MODEL 6
REMARK VINA RESULT:    -7.025      7.009     10.090
REMARK INTER + INTRA:         -10.689
REMARK INTER:                  -9.068
REMARK INTRA:                  -1.621
REMARK UNBOUND:                -1.610
REMARK  Name = laboratorio_evolutivo\Gen7_Mutante_2.pdb
REMARK  10 active torsions:
REMARK  status: ('A' for Active; 'I' for Inactive)
REMARK    1  A    between atoms: C1_1  and  C2_2
REMARK    2  A    between atoms: C2_2  and  C3_4
REMARK    3  A    between atoms: C5_6  and  C6_7
REMARK    4  A    between atoms: C8_10  and  C9_11
REMARK    5  A    between atoms: C12_14  and  C13_15
REMARK    6  A    between atoms: C14_16  and  C15_17
REMARK    7  A    between atoms: C15_17  and  C16_19
REMARK    8  A    between atoms: C16_19  and  C17_20
REMARK    9  A    between atoms: C17_20  and  C18_21
REMARK   10  A    between atoms: C17_20  and  C19_22
REMARK                            x       y       z     vdW  Elec       q    Type
REMARK                         _______ _______ _______ _____ _____    ______ ____
ROOT
ATOM      1  C9  UNL     1       2.299  61.222  72.157  0.00  0.00    +0.000 C 
ATOM      2  C10 UNL     1       3.574  60.571  72.733  0.00  0.00    +0.000 C 
ATOM      3  C11 UNL     1       4.587  60.664  71.599  0.00  0.00    +0.000 C 
ATOM      4  C12 UNL     1       3.746  60.313  70.374  0.00  0.00    +0.000 C 
ATOM      5  C13 UNL     1       4.432  60.607  69.050  0.00  0.00    +0.000 C 
ATOM      6  C14 UNL     1       2.381  60.986  70.626  0.00  0.00    +0.000 C 
ENDROOT
BRANCH   1  13
ATOM      7  C3  UNL     1       0.033  61.653  73.290  0.00  0.00    +0.000 C 
ATOM      8  C4  UNL     1      -1.202  61.193  73.763  0.00  0.00    +0.000 C 
ATOM      9  C5  UNL     1      -1.497  59.846  73.649  0.00  0.00    +0.000 C 
ATOM     10  C6  UNL     1      -2.805  59.308  74.149  0.00  0.00    +0.000 C 
ATOM     11  N1  UNL     1      -0.638  58.970  73.092  0.00  0.00    +0.000 NA
ATOM     12  C7  UNL     1       0.553  59.442  72.649  0.00  0.00    +0.000 C 
ATOM     13  C8  UNL     1       0.971  60.767  72.731  0.00  0.00    +0.000 C 
BRANCH   7  15
ATOM     14  C1  UNL     1       0.904  63.599  74.703  0.00  0.00    +0.000 C 
ATOM     15  C2  UNL     1       0.294  63.107  73.416  0.00  0.00    +0.000 C 
ATOM     16  O1  UNL     1       0.041  63.858  72.481  0.00  0.00    +0.000 OA
ENDBRANCH   7  15
ENDBRANCH   1  13
BRANCH   6  17
ATOM     17  C15 UNL     1       2.090  62.257  69.821  0.00  0.00    +0.000 C 
ATOM     18  O2  UNL     1       1.377  62.174  68.816  0.00  0.00    +0.000 OA
BRANCH  17  19
ATOM     19  C16 UNL     1       2.638  63.596  70.299  0.00  0.00    +0.000 C 
BRANCH  19  20
ATOM     20  C17 UNL     1       3.439  64.341  69.218  0.00  0.00    +0.000 C 
ATOM     21  C18 UNL     1       2.992  65.800  69.091  0.00  0.00    +0.000 C 
ATOM     22  C19 UNL     1       4.935  64.294  69.543  0.00  0.00    +0.000 C 
ENDBRANCH  19  20
ENDBRANCH  17  19
ENDBRANCH   6  17
TORSDOF 5
ENDMDL
MODEL 7
REMARK VINA RESULT:    -6.650      1.746      3.509
REMARK INTER + INTRA:         -10.204
REMARK INTER:                 -10.388
REMARK INTRA:                   0.184
REMARK UNBOUND:                -1.610
REMARK  Name = laboratorio_evolutivo\Gen7_Mutante_2.pdb
REMARK  10 active torsions:
REMARK  status: ('A' for Active; 'I' for Inactive)
REMARK    1  A    between atoms: C1_1  and  C2_2
REMARK    2  A    between atoms: C2_2  and  C3_4
REMARK    3  A    between atoms: C5_6  and  C6_7
REMARK    4  A    between atoms: C8_10  and  C9_11
REMARK    5  A    between atoms: C12_14  and  C13_15
REMARK    6  A    between atoms: C14_16  and  C15_17
REMARK    7  A    between atoms: C15_17  and  C16_19
REMARK    8  A    between atoms: C16_19  and  C17_20
REMARK    9  A    between atoms: C17_20  and  C18_21
REMARK   10  A    between atoms: C17_20  and  C19_22
REMARK                            x       y       z     vdW  Elec       q    Type
REMARK                         _______ _______ _______ _____ _____    ______ ____
ROOT
ATOM      1  C9  UNL     1       2.891  66.278  66.633  0.00  0.00    +0.000 C 
ATOM      2  C10 UNL     1       3.784  66.397  67.885  0.00  0.00    +0.000 C 
ATOM      3  C11 UNL     1       3.326  67.690  68.549  0.00  0.00    +0.000 C 
ATOM      4  C12 UNL     1       3.137  68.626  67.358  0.00  0.00    +0.000 C 
ATOM      5  C13 UNL     1       2.403  69.913  67.695  0.00  0.00    +0.000 C 
ATOM      6  C14 UNL     1       2.533  67.738  66.250  0.00  0.00    +0.000 C 
ENDROOT
BRANCH   1  13
ATOM      7  C3  UNL     1       4.384  66.050  64.553  0.00  0.00    +0.000 C 
ATOM      8  C4  UNL     1       4.914  65.282  63.510  0.00  0.00    +0.000 C 
ATOM      9  C5  UNL     1       4.523  63.959  63.393  0.00  0.00    +0.000 C 
ATOM     10  C6  UNL     1       5.059  63.101  62.287  0.00  0.00    +0.000 C 
ATOM     11  N1  UNL     1       3.657  63.391  64.256  0.00  0.00    +0.000 NA
ATOM     12  C7  UNL     1       3.155  64.160  65.252  0.00  0.00    +0.000 C 
ATOM     13  C8  UNL     1       3.453  65.504  65.455  0.00  0.00    +0.000 C 
BRANCH   7  15
ATOM     14  C1  UNL     1       4.131  68.486  63.817  0.00  0.00    +0.000 C 
ATOM     15  C2  UNL     1       4.848  67.454  64.648  0.00  0.00    +0.000 C 
ATOM     16  O1  UNL     1       5.768  67.746  65.404  0.00  0.00    +0.000 OA
ENDBRANCH   7  15
ENDBRANCH   1  13
BRANCH   6  17
ATOM     17  C15 UNL     1       1.038  67.921  65.971  0.00  0.00    +0.000 C 
ATOM     18  O2  UNL     1       0.645  67.916  64.801  0.00  0.00    +0.000 OA
BRANCH  17  19
ATOM     19  C16 UNL     1       0.064  68.054  67.136  0.00  0.00    +0.000 C 
BRANCH  19  20
ATOM     20  C17 UNL     1      -0.695  66.750  67.439  0.00  0.00    +0.000 C 
ATOM     21  C18 UNL     1      -0.407  66.248  68.858  0.00  0.00    +0.000 C 
ATOM     22  C19 UNL     1      -2.202  66.965  67.273  0.00  0.00    +0.000 C 
ENDBRANCH  19  20
ENDBRANCH  17  19
ENDBRANCH   6  17
TORSDOF 5
ENDMDL
MODEL 8
REMARK VINA RESULT:    -6.622      7.550     10.432
REMARK INTER + INTRA:         -10.168
REMARK INTER:                  -8.590
REMARK INTRA:                  -1.578
REMARK UNBOUND:                -1.610
REMARK  Name = laboratorio_evolutivo\Gen7_Mutante_2.pdb
REMARK  10 active torsions:
REMARK  status: ('A' for Active; 'I' for Inactive)
REMARK    1  A    between atoms: C1_1  and  C2_2
REMARK    2  A    between atoms: C2_2  and  C3_4
REMARK    3  A    between atoms: C5_6  and  C6_7
REMARK    4  A    between atoms: C8_10  and  C9_11
REMARK    5  A    between atoms: C12_14  and  C13_15
REMARK    6  A    between atoms: C14_16  and  C15_17
REMARK    7  A    between atoms: C15_17  and  C16_19
REMARK    8  A    between atoms: C16_19  and  C17_20
REMARK    9  A    between atoms: C17_20  and  C18_21
REMARK   10  A    between atoms: C17_20  and  C19_22
REMARK                            x       y       z     vdW  Elec       q    Type
REMARK                         _______ _______ _______ _____ _____    ______ ____
ROOT
ATOM      1  C9  UNL     1       2.729  60.418  71.998  0.00  0.00    +0.000 C 
ATOM      2  C10 UNL     1       4.136  60.379  72.630  0.00  0.00    +0.000 C 
ATOM      3  C11 UNL     1       5.017  61.113  71.626  0.00  0.00    +0.000 C 
ATOM      4  C12 UNL     1       4.503  60.588  70.288  0.00  0.00    +0.000 C 
ATOM      5  C13 UNL     1       5.009  61.368  69.085  0.00  0.00    +0.000 C 
ATOM      6  C14 UNL     1       2.974  60.479  70.468  0.00  0.00    +0.000 C 
ENDROOT
BRANCH   1  13
ATOM      7  C3  UNL     1       0.463  59.537  72.832  0.00  0.00    +0.000 C 
ATOM      8  C4  UNL     1      -0.402  58.475  73.120  0.00  0.00    +0.000 C 
ATOM      9  C5  UNL     1       0.046  57.180  72.923  0.00  0.00    +0.000 C 
ATOM     10  C6  UNL     1      -0.844  56.012  73.226  0.00  0.00    +0.000 C 
ATOM     11  N1  UNL     1       1.283  56.915  72.458  0.00  0.00    +0.000 NA
ATOM     12  C7  UNL     1       2.101  57.962  72.194  0.00  0.00    +0.000 C 
ATOM     13  C8  UNL     1       1.772  59.302  72.375  0.00  0.00    +0.000 C 
BRANCH   7  15
ATOM     14  C1  UNL     1      -1.087  61.416  72.052  0.00  0.00    +0.000 C 
ATOM     15  C2  UNL     1      -0.070  60.905  73.039  0.00  0.00    +0.000 C 
ATOM     16  O1  UNL     1       0.299  61.567  74.003  0.00  0.00    +0.000 OA
ENDBRANCH   7  15
ENDBRANCH   1  13
BRANCH   6  17
ATOM     17  C15 UNL     1       2.131  61.559  69.782  0.00  0.00    +0.000 C 
ATOM     18  O2  UNL     1       1.634  61.314  68.678  0.00  0.00    +0.000 OA
BRANCH  17  19
ATOM     19  C16 UNL     1       1.880  62.885  70.491  0.00  0.00    +0.000 C 
BRANCH  19  20
ATOM     20  C17 UNL     1       1.895  64.091  69.536  0.00  0.00    +0.000 C 
ATOM     21  C18 UNL     1       0.892  65.165  69.970  0.00  0.00    +0.000 C 
ATOM     22  C19 UNL     1       3.299  64.701  69.478  0.00  0.00    +0.000 C 
ENDBRANCH  19  20
ENDBRANCH  17  19
ENDBRANCH   6  17
TORSDOF 5
ENDMDL
MODEL 9
REMARK VINA RESULT:    -6.580      8.118     10.679
REMARK INTER + INTRA:         -10.114
REMARK INTER:                  -8.787
REMARK INTRA:                  -1.327
REMARK UNBOUND:                -1.610
REMARK  Name = laboratorio_evolutivo\Gen7_Mutante_2.pdb
REMARK  10 active torsions:
REMARK  status: ('A' for Active; 'I' for Inactive)
REMARK    1  A    between atoms: C1_1  and  C2_2
REMARK    2  A    between atoms: C2_2  and  C3_4
REMARK    3  A    between atoms: C5_6  and  C6_7
REMARK    4  A    between atoms: C8_10  and  C9_11
REMARK    5  A    between atoms: C12_14  and  C13_15
REMARK    6  A    between atoms: C14_16  and  C15_17
REMARK    7  A    between atoms: C15_17  and  C16_19
REMARK    8  A    between atoms: C16_19  and  C17_20
REMARK    9  A    between atoms: C17_20  and  C18_21
REMARK   10  A    between atoms: C17_20  and  C19_22
REMARK                            x       y       z     vdW  Elec       q    Type
REMARK                         _______ _______ _______ _____ _____    ______ ____
ROOT
ATOM      1  C9  UNL     1       0.839  60.509  71.950  0.00  0.00    +0.000 C 
ATOM      2  C10 UNL     1      -0.622  60.913  72.241  0.00  0.00    +0.000 C 
ATOM      3  C11 UNL     1      -0.849  62.143  71.371  0.00  0.00    +0.000 C 
ATOM      4  C12 UNL     1       0.459  62.914  71.538  0.00  0.00    +0.000 C 
ATOM      5  C13 UNL     1       0.633  64.055  70.549  0.00  0.00    +0.000 C 
ATOM      6  C14 UNL     1       1.556  61.829  71.565  0.00  0.00    +0.000 C 
ENDROOT
BRANCH   1  13
ATOM      7  C3  UNL     1       1.750  58.364  73.037  0.00  0.00    +0.000 C 
ATOM      8  C4  UNL     1       2.483  57.722  74.041  0.00  0.00    +0.000 C 
ATOM      9  C5  UNL     1       3.062  58.490  75.037  0.00  0.00    +0.000 C 
ATOM     10  C6  UNL     1       3.849  57.844  76.136  0.00  0.00    +0.000 C 
ATOM     11  N1  UNL     1       2.946  59.833  75.061  0.00  0.00    +0.000 NA
ATOM     12  C7  UNL     1       2.225  60.427  74.080  0.00  0.00    +0.000 C 
ATOM     13  C8  UNL     1       1.578  59.760  73.044  0.00  0.00    +0.000 C 
BRANCH   7  15
ATOM     14  C1  UNL     1      -0.083  56.731  72.320  0.00  0.00    +0.000 C 
ATOM     15  C2  UNL     1       1.167  57.501  71.982  0.00  0.00    +0.000 C 
ATOM     16  O1  UNL     1       1.687  57.453  70.872  0.00  0.00    +0.000 OA
ENDBRANCH   7  15
ENDBRANCH   1  13
BRANCH   6  17
ATOM     17  C15 UNL     1       2.402  61.687  70.296  0.00  0.00    +0.000 C 
ATOM     18  O2  UNL     1       1.859  61.295  69.259  0.00  0.00    +0.000 OA
BRANCH  17  19
ATOM     19  C16 UNL     1       3.876  62.077  70.324  0.00  0.00    +0.000 C 
BRANCH  19  20
ATOM     20  C17 UNL     1       4.809  60.886  70.604  0.00  0.00    +0.000 C 
ATOM     21  C18 UNL     1       5.143  60.772  72.095  0.00  0.00    +0.000 C 
ATOM     22  C19 UNL     1       4.161  59.583  70.128  0.00  0.00    +0.000 C 
ENDBRANCH  19  20
ENDBRANCH  17  19
ENDBRANCH   6  17
TORSDOF 5
ENDMDL
