MODEL 1
REMARK VINA RESULT:    -8.164      0.000      0.000
REMARK INTER + INTRA:         -11.684
REMARK INTER:                 -10.789
REMARK INTRA:                  -0.895
REMARK UNBOUND:                -0.895
REMARK  Name = laboratorio_evolutivo\Gen7_Mutante_3.pdb
REMARK  11 active torsions:
REMARK  status: ('A' for Active; 'I' for Inactive)
REMARK    1  A    between atoms: C1_1  and  C2_2
REMARK    2  A    between atoms: C4_5  and  C5_6
REMARK    3  A    between atoms: C8_9  and  C9_10
REMARK    4  A    between atoms: C10_11  and  C11_12
REMARK    5  A    between atoms: C11_12  and  C12_14
REMARK    6  A    between atoms: C12_14  and  C13_15
REMARK    7  A    between atoms: C13_15  and  C14_16
REMARK    8  A    between atoms: C13_15  and  C15_17
REMARK    9  A    between atoms: C16_18  and  C17_19
REMARK   10  A    between atoms: N2_20  and  O2_21
REMARK   11  A    between atoms: C18_22  and  C19_23
REMARK                            x       y       z     vdW  Elec       q    Type
REMARK                         _______ _______ _______ _____ _____    ______ ____
ROOT
ATOM      1  C1  UNL     1       3.485  64.020  70.077  0.00  0.00    +0.000 C 
ATOM      2  C2  UNL     1       3.660  64.691  68.745  0.00  0.00    +0.000 C 
ATOM      3  N1  UNL     1       3.898  66.019  68.804  0.00  0.00    +0.000 NA
ATOM      4  C3  UNL     1       4.060  66.697  67.647  0.00  0.00    +0.000 C 
ATOM      5  C4  UNL     1       3.997  66.136  66.378  0.00  0.00    +0.000 C 
ATOM      6  C16 UNL     1       3.746  64.745  66.342  0.00  0.00    +0.000 C 
ATOM      7  C18 UNL     1       3.593  63.996  67.536  0.00  0.00    +0.000 C 
ATOM      8  C19 UNL     1       3.341  62.511  67.514  0.00  0.00    +0.000 C 
ENDROOT
BRANCH   5   9
ATOM      9  C5  UNL     1       4.162  66.999  65.144  0.00  0.00    +0.000 C 
ATOM     10  C6  UNL     1       5.030  68.265  65.245  0.00  0.00    +0.000 C 
ATOM     11  C7  UNL     1       4.798  68.927  63.894  0.00  0.00    +0.000 C 
ATOM     12  C8  UNL     1       3.299  68.736  63.626  0.00  0.00    +0.000 C 
ATOM     13  C9  UNL     1       3.011  68.515  62.144  0.00  0.00    +0.000 C 
ATOM     14  C10 UNL     1       2.862  67.530  64.496  0.00  0.00    +0.000 C 
BRANCH  14  15
ATOM     15  C11 UNL     1       1.835  67.988  65.533  0.00  0.00    +0.000 C 
ATOM     16  O1  UNL     1       2.028  68.982  66.234  0.00  0.00    +0.000 OA
BRANCH  15  17
ATOM     17  C12 UNL     1       0.581  67.134  65.660  0.00  0.00    +0.000 C 
BRANCH  17  18
ATOM     18  C13 UNL     1      -0.248  67.434  66.919  0.00  0.00    +0.000 C 
ATOM     19  C14 UNL     1      -1.707  67.006  66.740  0.00  0.00    +0.000 C 
ATOM     20  C15 UNL     1       0.355  66.718  68.128  0.00  0.00    +0.000 C 
ENDBRANCH  17  18
ENDBRANCH  15  17
ENDBRANCH  14  15
ENDBRANCH   5   9
BRANCH   6  21
ATOM     21  C17 UNL     1       3.579  64.010  65.063  0.00  0.00    +0.000 C 
ATOM     22  N2  UNL     1       4.450  64.034  64.106  0.00  0.00    +0.000 NA
BRANCH  22  23
ATOM     23  O2  UNL     1       3.986  63.241  63.050  0.00  0.00    +0.000 OA
ATOM     24  H   UNL     1       3.137  63.397  62.685  0.00  0.00    +0.000 HD
ENDBRANCH  22  23
ENDBRANCH   6  21
TORSDOF 6
ENDMDL
MODEL 2
REMARK VINA RESULT:    -7.275      5.937      9.440
REMARK INTER + INTRA:         -10.510
REMARK INTER:                  -9.464
REMARK INTRA:                  -1.046
REMARK UNBOUND:                -0.895
REMARK  Name = laboratorio_evolutivo\Gen7_Mutante_3.pdb
REMARK  11 active torsions:
REMARK  status: ('A' for Active; 'I' for Inactive)
REMARK    1  A    between atoms: C1_1  and  C2_2
REMARK    2  A    between atoms: C4_5  and  C5_6
REMARK    3  A    between atoms: C8_9  and  C9_10
REMARK    4  A    between atoms: C10_11  and  C11_12
REMARK    5  A    between atoms: C11_12  and  C12_14
REMARK    6  A    between atoms: C12_14  and  C13_15
REMARK    7  A    between atoms: C13_15  and  C14_16
REMARK    8  A    between atoms: C13_15  and  C15_17
REMARK    9  A    between atoms: C16_18  and  C17_19
REMARK   10  A    between atoms: N2_20  and  O2_21
REMARK   11  A    between atoms: C18_22  and  C19_23
REMARK                            x       y       z     vdW  Elec       q    Type
REMARK                         _______ _______ _______ _____ _____    ______ ____
ROOT
ATOM      1  C1  UNL     1       3.998  63.970  69.247  0.00  0.00    +0.000 C 
ATOM      2  C2  UNL     1       3.038  62.983  69.847  0.00  0.00    +0.000 C 
ATOM      3  N1  UNL     1       2.052  63.528  70.591  0.00  0.00    +0.000 NA
ATOM      4  C3  UNL     1       1.152  62.706  71.171  0.00  0.00    +0.000 C 
ATOM      5  C4  UNL     1       1.156  61.320  71.069  0.00  0.00    +0.000 C 
ATOM      6  C16 UNL     1       2.198  60.772  70.288  0.00  0.00    +0.000 C 
ATOM      7  C18 UNL     1       3.148  61.605  69.644  0.00  0.00    +0.000 C 
ATOM      8  C19 UNL     1       4.254  61.037  68.794  0.00  0.00    +0.000 C 
ENDROOT
BRANCH   5   9
ATOM      9  C5  UNL     1       0.113  60.491  71.791  0.00  0.00    +0.000 C 
ATOM     10  C6  UNL     1      -1.176  61.184  72.265  0.00  0.00    +0.000 C 
ATOM     11  C7  UNL     1      -1.855  60.090  73.077  0.00  0.00    +0.000 C 
ATOM     12  C8  UNL     1      -0.710  59.423  73.852  0.00  0.00    +0.000 C 
ATOM     13  C9  UNL     1      -0.932  57.922  74.012  0.00  0.00    +0.000 C 
ATOM     14  C10 UNL     1       0.583  59.746  73.062  0.00  0.00    +0.000 C 
BRANCH  14  15
ATOM     15  C11 UNL     1       1.517  60.594  73.927  0.00  0.00    +0.000 C 
ATOM     16  O1  UNL     1       2.718  60.691  73.672  0.00  0.00    +0.000 OA
BRANCH  15  17
ATOM     17  C12 UNL     1       0.881  61.286  75.125  0.00  0.00    +0.000 C 
BRANCH  17  18
ATOM     18  C13 UNL     1       0.249  62.646  74.789  0.00  0.00    +0.000 C 
ATOM     19  C14 UNL     1      -1.001  62.903  75.637  0.00  0.00    +0.000 C 
ATOM     20  C15 UNL     1       1.265  63.767  75.015  0.00  0.00    +0.000 C 
ENDBRANCH  17  18
ENDBRANCH  15  17
ENDBRANCH  14  15
ENDBRANCH   5   9
BRANCH   6  21
ATOM     21  C17 UNL     1       2.382  59.306  70.140  0.00  0.00    +0.000 C 
ATOM     22  N2  UNL     1       3.189  58.609  70.874  0.00  0.00    +0.000 NA
BRANCH  22  23
ATOM     23  O2  UNL     1       3.124  57.270  70.474  0.00  0.00    +0.000 OA
ATOM     24  H   UNL     1       2.294  56.839  70.414  0.00  0.00    +0.000 HD
ENDBRANCH  22  23
ENDBRANCH   6  21
TORSDOF 6
ENDMDL
MODEL 3
REMARK VINA RESULT:    -7.058      5.710      9.588
REMARK INTER + INTRA:         -10.222
REMARK INTER:                  -9.845
REMARK INTRA:                  -0.377
REMARK UNBOUND:                -0.895
REMARK  Name = laboratorio_evolutivo\Gen7_Mutante_3.pdb
REMARK  11 active torsions:
REMARK  status: ('A' for Active; 'I' for Inactive)
REMARK    1  A    between atoms: C1_1  and  C2_2
REMARK    2  A    between atoms: C4_5  and  C5_6
REMARK    3  A    between atoms: C8_9  and  C9_10
REMARK    4  A    between atoms: C10_11  and  C11_12
REMARK    5  A    between atoms: C11_12  and  C12_14
REMARK    6  A    between atoms: C12_14  and  C13_15
REMARK    7  A    between atoms: C13_15  and  C14_16
REMARK    8  A    between atoms: C13_15  and  C15_17
REMARK    9  A    between atoms: C16_18  and  C17_19
REMARK   10  A    between atoms: N2_20  and  O2_21
REMARK   11  A    between atoms: C18_22  and  C19_23
REMARK                            x       y       z     vdW  Elec       q    Type
REMARK                         _______ _______ _______ _____ _____    ______ ____
ROOT
ATOM      1  C1  UNL     1       2.871  65.235  69.169  0.00  0.00    +0.000 C 
ATOM      2  C2  UNL     1       2.211  63.997  69.705  0.00  0.00    +0.000 C 
ATOM      3  N1  UNL     1       1.217  64.219  70.591  0.00  0.00    +0.000 NA
ATOM      4  C3  UNL     1       0.579  63.156  71.125  0.00  0.00    +0.000 C 
ATOM      5  C4  UNL     1       0.866  61.827  70.838  0.00  0.00    +0.000 C 
ATOM      6  C16 UNL     1       1.911  61.619  69.910  0.00  0.00    +0.000 C 
ATOM      7  C18 UNL     1       2.589  62.710  69.311  0.00  0.00    +0.000 C 
ATOM      8  C19 UNL     1       3.694  62.505  68.308  0.00  0.00    +0.000 C 
ENDROOT
BRANCH   5   9
ATOM      9  C5  UNL     1       0.105  60.709  71.522  0.00  0.00    +0.000 C 
ATOM     10  C6  UNL     1      -1.111  61.073  72.390  0.00  0.00    +0.000 C 
ATOM     11  C7  UNL     1      -1.470  59.737  73.026  0.00  0.00    +0.000 C 
ATOM     12  C8  UNL     1      -0.117  59.104  73.378  0.00  0.00    +0.000 C 
ATOM     13  C9  UNL     1      -0.137  57.589  73.205  0.00  0.00    +0.000 C 
ATOM     14  C10 UNL     1       0.924  59.789  72.456  0.00  0.00    +0.000 C 
BRANCH  14  15
ATOM     15  C11 UNL     1       1.934  60.564  73.306  0.00  0.00    +0.000 C 
ATOM     16  O1  UNL     1       1.692  61.700  73.714  0.00  0.00    +0.000 OA
BRANCH  15  17
ATOM     17  C12 UNL     1       3.253  59.860  73.593  0.00  0.00    +0.000 C 
BRANCH  17  18
ATOM     18  C13 UNL     1       3.132  58.709  74.604  0.00  0.00    +0.000 C 
ATOM     19  C14 UNL     1       4.473  57.996  74.798  0.00  0.00    +0.000 C 
ATOM     20  C15 UNL     1       2.630  59.240  75.947  0.00  0.00    +0.000 C 
ENDBRANCH  17  18
ENDBRANCH  15  17
ENDBRANCH  14  15
ENDBRANCH   5   9
BRANCH   6  21
ATOM     21  C17 UNL     1       2.385  60.258  69.552  0.00  0.00    +0.000 C 
ATOM     22  N2  UNL     1       3.488  59.746  69.995  0.00  0.00    +0.000 NA
BRANCH  22  23
ATOM     23  O2  UNL     1       3.636  58.458  69.466  0.00  0.00    +0.000 OA
ATOM     24  H   UNL     1       3.552  57.711  70.024  0.00  0.00    +0.000 HD
ENDBRANCH  22  23
ENDBRANCH   6  21
TORSDOF 6
ENDMDL
MODEL 4
REMARK VINA RESULT:    -6.828      6.135      9.844
REMARK INTER + INTRA:          -9.918
REMARK INTER:                  -8.826
REMARK INTRA:                  -1.092
REMARK UNBOUND:                -0.895
REMARK  Name = laboratorio_evolutivo\Gen7_Mutante_3.pdb
REMARK  11 active torsions:
REMARK  status: ('A' for Active; 'I' for Inactive)
REMARK    1  A    between atoms: C1_1  and  C2_2
REMARK    2  A    between atoms: C4_5  and  C5_6
REMARK    3  A    between atoms: C8_9  and  C9_10
REMARK    4  A    between atoms: C10_11  and  C11_12
REMARK    5  A    between atoms: C11_12  and  C12_14
REMARK    6  A    between atoms: C12_14  and  C13_15
REMARK    7  A    between atoms: C13_15  and  C14_16
REMARK    8  A    between atoms: C13_15  and  C15_17
REMARK    9  A    between atoms: C16_18  and  C17_19
REMARK   10  A    between atoms: N2_20  and  O2_21
REMARK   11  A    between atoms: C18_22  and  C19_23
REMARK                            x       y       z     vdW  Elec       q    Type
REMARK                         _______ _______ _______ _____ _____    ______ ____
ROOT
ATOM      1  C1  UNL     1       0.820  64.918  69.788  0.00  0.00    +0.000 C 
ATOM      2  C2  UNL     1       0.820  63.503  70.292  0.00  0.00    +0.000 C 
ATOM      3  N1  UNL     1      -0.174  63.207  71.155  0.00  0.00    +0.000 NA
ATOM      4  C3  UNL     1      -0.238  61.956  71.660  0.00  0.00    +0.000 C 
ATOM      5  C4  UNL     1       0.650  60.930  71.364  0.00  0.00    +0.000 C 
ATOM      6  C16 UNL     1       1.683  61.264  70.460  0.00  0.00    +0.000 C 
ATOM      7  C18 UNL     1       1.770  62.560  69.891  0.00  0.00    +0.000 C 
ATOM      8  C19 UNL     1       2.855  62.927  68.913  0.00  0.00    +0.000 C 
ENDROOT
BRANCH   5   9
ATOM      9  C5  UNL     1       0.502  59.570  72.015  0.00  0.00    +0.000 C 
ATOM     10  C6  UNL     1      -0.777  59.276  72.819  0.00  0.00    +0.000 C 
ATOM     11  C7  UNL     1      -0.466  57.923  73.442  0.00  0.00    +0.000 C 
ATOM     12  C8  UNL     1       1.006  58.024  73.865  0.00  0.00    +0.000 C 
ATOM     13  C9  UNL     1       1.736  56.696  73.700  0.00  0.00    +0.000 C 
ATOM     14  C10 UNL     1       1.621  59.148  72.994  0.00  0.00    +0.000 C 
BRANCH  14  15
ATOM     15  C11 UNL     1       2.083  60.300  73.889  0.00  0.00    +0.000 C 
ATOM     16  O1  UNL     1       2.947  61.095  73.519  0.00  0.00    +0.000 OA
BRANCH  15  17
ATOM     17  C12 UNL     1       1.429  60.388  75.261  0.00  0.00    +0.000 C 
BRANCH  17  18
ATOM     18  C13 UNL     1       0.258  61.380  75.326  0.00  0.00    +0.000 C 
ATOM     19  C14 UNL     1      -0.861  60.861  76.234  0.00  0.00    +0.000 C 
ATOM     20  C15 UNL     1       0.747  62.737  75.835  0.00  0.00    +0.000 C 
ENDBRANCH  17  18
ENDBRANCH  15  17
ENDBRANCH  14  15
ENDBRANCH   5   9
BRANCH   6  21
ATOM     21  C17 UNL     1       2.753  60.300  70.097  0.00  0.00    +0.000 C 
ATOM     22  N2  UNL     1       2.659  59.464  69.114  0.00  0.00    +0.000 NA
BRANCH  22  23
ATOM     23  O2  UNL     1       3.832  58.705  69.049  0.00  0.00    +0.000 OA
ATOM     24  H   UNL     1       4.667  59.129  69.081  0.00  0.00    +0.000 HD
ENDBRANCH  22  23
ENDBRANCH   6  21
TORSDOF 6
ENDMDL
MODEL 5
REMARK VINA RESULT:    -6.712      7.858     10.998
REMARK INTER + INTRA:          -9.765
REMARK INTER:                  -8.812
REMARK INTRA:                  -0.953
REMARK UNBOUND:                -0.895
REMARK  Name = laboratorio_evolutivo\Gen7_Mutante_3.pdb
REMARK  11 active torsions:
REMARK  status: ('A' for Active; 'I' for Inactive)
REMARK    1  A    between atoms: C1_1  and  C2_2
REMARK    2  A    between atoms: C4_5  and  C5_6
REMARK    3  A    between atoms: C8_9  and  C9_10
REMARK    4  A    between atoms: C10_11  and  C11_12
REMARK    5  A    between atoms: C11_12  and  C12_14
REMARK    6  A    between atoms: C12_14  and  C13_15
REMARK    7  A    between atoms: C13_15  and  C14_16
REMARK    8  A    between atoms: C13_15  and  C15_17
REMARK    9  A    between atoms: C16_18  and  C17_19
REMARK   10  A    between atoms: N2_20  and  O2_21
REMARK   11  A    between atoms: C18_22  and  C19_23
REMARK                            x       y       z     vdW  Elec       q    Type
REMARK                         _______ _______ _______ _____ _____    ______ ____
ROOT
ATOM      1  C1  UNL     1      -3.066  58.297  74.978  0.00  0.00    +0.000 C 
ATOM      2  C2  UNL     1      -1.944  58.695  74.063  0.00  0.00    +0.000 C 
ATOM      3  N1  UNL     1      -1.006  57.745  73.866  0.00  0.00    +0.000 NA
ATOM      4  C3  UNL     1       0.041  58.028  73.061  0.00  0.00    +0.000 C 
ATOM      5  C4  UNL     1       0.241  59.239  72.410  0.00  0.00    +0.000 C 
ATOM      6  C16 UNL     1      -0.753  60.219  72.633  0.00  0.00    +0.000 C 
ATOM      7  C18 UNL     1      -1.878  59.950  73.453  0.00  0.00    +0.000 C 
ATOM      8  C19 UNL     1      -2.954  60.978  73.687  0.00  0.00    +0.000 C 
ENDROOT
BRANCH   5   9
ATOM      9  C5  UNL     1       1.471  59.460  71.554  0.00  0.00    +0.000 C 
ATOM     10  C6  UNL     1       2.148  58.237  70.912  0.00  0.00    +0.000 C 
ATOM     11  C7  UNL     1       3.408  58.840  70.309  0.00  0.00    +0.000 C 
ATOM     12  C8  UNL     1       3.897  59.840  71.365  0.00  0.00    +0.000 C 
ATOM     13  C9  UNL     1       4.526  61.076  70.729  0.00  0.00    +0.000 C 
ATOM     14  C10 UNL     1       2.658  60.188  72.227  0.00  0.00    +0.000 C 
BRANCH  14  15
ATOM     15  C11 UNL     1       2.887  59.727  73.669  0.00  0.00    +0.000 C 
ATOM     16  O1  UNL     1       2.254  60.212  74.607  0.00  0.00    +0.000 OA
BRANCH  15  17
ATOM     17  C12 UNL     1       3.951  58.657  73.871  0.00  0.00    +0.000 C 
BRANCH  17  18
ATOM     18  C13 UNL     1       3.716  57.777  75.108  0.00  0.00    +0.000 C 
ATOM     19  C14 UNL     1       2.645  56.716  74.840  0.00  0.00    +0.000 C 
ATOM     20  C15 UNL     1       5.022  57.097  75.525  0.00  0.00    +0.000 C 
ENDBRANCH  17  18
ENDBRANCH  15  17
ENDBRANCH  14  15
ENDBRANCH   5   9
BRANCH   6  21
ATOM     21  C17 UNL     1      -0.648  61.587  72.066  0.00  0.00    +0.000 C 
ATOM     22  N2  UNL     1      -0.066  62.570  72.674  0.00  0.00    +0.000 NA
BRANCH  22  23
ATOM     23  O2  UNL     1      -0.146  63.713  71.870  0.00  0.00    +0.000 OA
ATOM     24  H   UNL     1       0.275  64.505  72.139  0.00  0.00    +0.000 HD
ENDBRANCH  22  23
ENDBRANCH   6  21
TORSDOF 6
ENDMDL
MODEL 6
REMARK VINA RESULT:    -6.633      7.570     11.607
REMARK INTER + INTRA:          -9.660
REMARK INTER:                  -8.705
REMARK INTRA:                  -0.956
REMARK UNBOUND:                -0.895
REMARK  Name = laboratorio_evolutivo\Gen7_Mutante_3.pdb
REMARK  11 active torsions:
REMARK  status: ('A' for Active; 'I' for Inactive)
REMARK    1  A    between atoms: C1_1  and  C2_2
REMARK    2  A    between atoms: C4_5  and  C5_6
REMARK    3  A    between atoms: C8_9  and  C9_10
REMARK    4  A    between atoms: C10_11  and  C11_12
REMARK    5  A    between atoms: C11_12  and  C12_14
REMARK    6  A    between atoms: C12_14  and  C13_15
REMARK    7  A    between atoms: C13_15  and  C14_16
REMARK    8  A    between atoms: C13_15  and  C15_17
REMARK    9  A    between atoms: C16_18  and  C17_19
REMARK   10  A    between atoms: N2_20  and  O2_21
REMARK   11  A    between atoms: C18_22  and  C19_23
REMARK                            x       y       z     vdW  Elec       q    Type
REMARK                         _______ _______ _______ _____ _____    ______ ____
ROOT
ATOM      1  C1  UNL     1       0.570  63.521  71.269  0.00  0.00    +0.000 C 
ATOM      2  C2  UNL     1       0.638  62.044  71.529  0.00  0.00    +0.000 C 
ATOM      3  N1  UNL     1      -0.071  61.620  72.596  0.00  0.00    +0.000 NA
ATOM      4  C3  UNL     1      -0.055  60.304  72.901  0.00  0.00    +0.000 C 
ATOM      5  C4  UNL     1       0.647  59.332  72.199  0.00  0.00    +0.000 C 
ATOM      6  C16 UNL     1       1.384  59.799  71.087  0.00  0.00    +0.000 C 
ATOM      7  C18 UNL     1       1.372  61.169  70.723  0.00  0.00    +0.000 C 
ATOM      8  C19 UNL     1       2.138  61.681  69.531  0.00  0.00    +0.000 C 
ENDROOT
BRANCH   5   9
ATOM      9  C5  UNL     1       0.621  57.886  72.650  0.00  0.00    +0.000 C 
ATOM     10  C6  UNL     1      -0.505  57.432  73.595  0.00  0.00    +0.000 C 
ATOM     11  C7  UNL     1      -0.083  56.012  73.947  0.00  0.00    +0.000 C 
ATOM     12  C8  UNL     1       1.437  56.100  74.138  0.00  0.00    +0.000 C 
ATOM     13  C9  UNL     1       2.143  54.837  73.656  0.00  0.00    +0.000 C 
ATOM     14  C10 UNL     1       1.890  57.362  73.360  0.00  0.00    +0.000 C 
BRANCH  14  15
ATOM     15  C11 UNL     1       2.481  58.383  74.334  0.00  0.00    +0.000 C 
ATOM     16  O1  UNL     1       3.206  59.299  73.944  0.00  0.00    +0.000 OA
BRANCH  15  17
ATOM     17  C12 UNL     1       2.138  58.186  75.805  0.00  0.00    +0.000 C 
BRANCH  17  18
ATOM     18  C13 UNL     1       3.369  58.110  76.722  0.00  0.00    +0.000 C 
ATOM     19  C14 UNL     1       2.970  57.769  78.161  0.00  0.00    +0.000 C 
ATOM     20  C15 UNL     1       4.351  57.062  76.197  0.00  0.00    +0.000 C 
ENDBRANCH  17  18
ENDBRANCH  15  17
ENDBRANCH  14  15
ENDBRANCH   5   9
BRANCH   6  21
ATOM     21  C17 UNL     1       2.242  58.898  70.278  0.00  0.00    +0.000 C 
ATOM     22  N2  UNL     1       3.473  58.629  70.571  0.00  0.00    +0.000 NA
BRANCH  22  23
ATOM     23  O2  UNL     1       3.989  57.754  69.608  0.00  0.00    +0.000 OA
ATOM     24  H   UNL     1       4.438  58.094  68.859  0.00  0.00    +0.000 HD
ENDBRANCH  22  23
ENDBRANCH   6  21
TORSDOF 6
ENDMDL
MODEL 7
REMARK VINA RESULT:    -6.259     19.633     22.503
REMARK INTER + INTRA:          -9.166
REMARK INTER:                  -7.771
REMARK INTRA:                  -1.395
REMARK UNBOUND:                -0.895
REMARK  Name = laboratorio_evolutivo\Gen7_Mutante_3.pdb
REMARK  11 active torsions:
REMARK  status: ('A' for Active; 'I' for Inactive)
REMARK    1  A    between atoms: C1_1  and  C2_2
REMARK    2  A    between atoms: C4_5  and  C5_6
REMARK    3  A    between atoms: C8_9  and  C9_10
REMARK    4  A    between atoms: C10_11  and  C11_12
REMARK    5  A    between atoms: C11_12  and  C12_14
REMARK    6  A    between atoms: C12_14  and  C13_15
REMARK    7  A    between atoms: C13_15  and  C14_16
REMARK    8  A    between atoms: C13_15  and  C15_17
REMARK    9  A    between atoms: C16_18  and  C17_19
REMARK   10  A    between atoms: N2_20  and  O2_21
REMARK   11  A    between atoms: C18_22  and  C19_23
REMARK                            x       y       z     vdW  Elec       q    Type
REMARK                         _______ _______ _______ _____ _____    ______ ____
ROOT
ATOM      1  C1  UNL     1      12.445  45.224  57.915  0.00  0.00    +0.000 C 
ATOM      2  C2  UNL     1      12.888  46.519  58.534  0.00  0.00    +0.000 C 
ATOM      3  N1  UNL     1      12.636  47.619  57.793  0.00  0.00    +0.000 NA
ATOM      4  C3  UNL     1      13.011  48.822  58.278  0.00  0.00    +0.000 C 
ATOM      5  C4  UNL     1      13.649  49.029  59.494  0.00  0.00    +0.000 C 
ATOM      6  C16 UNL     1      13.904  47.862  60.251  0.00  0.00    +0.000 C 
ATOM      7  C18 UNL     1      13.504  46.584  59.786  0.00  0.00    +0.000 C 
ATOM      8  C19 UNL     1      13.754  45.334  60.588  0.00  0.00    +0.000 C 
ENDROOT
BRANCH   5   9
ATOM      9  C5  UNL     1      14.055  50.423  59.925  0.00  0.00    +0.000 C 
ATOM     10  C6  UNL     1      13.198  51.613  59.461  0.00  0.00    +0.000 C 
ATOM     11  C7  UNL     1      14.015  52.807  59.933  0.00  0.00    +0.000 C 
ATOM     12  C8  UNL     1      15.470  52.418  59.635  0.00  0.00    +0.000 C 
ATOM     13  C9  UNL     1      16.428  52.953  60.694  0.00  0.00    +0.000 C 
ATOM     14  C10 UNL     1      15.487  50.871  59.552  0.00  0.00    +0.000 C 
BRANCH  14  15
ATOM     15  C11 UNL     1      15.888  50.435  58.141  0.00  0.00    +0.000 C 
ATOM     16  O1  UNL     1      15.555  51.083  57.149  0.00  0.00    +0.000 OA
BRANCH  15  17
ATOM     17  C12 UNL     1      16.698  49.149  58.040  0.00  0.00    +0.000 C 
BRANCH  17  18
ATOM     18  C13 UNL     1      16.294  48.255  56.858  0.00  0.00    +0.000 C 
ATOM     19  C14 UNL     1      17.221  48.466  55.658  0.00  0.00    +0.000 C 
ATOM     20  C15 UNL     1      16.321  46.785  57.279  0.00  0.00    +0.000 C 
ENDBRANCH  17  18
ENDBRANCH  15  17
ENDBRANCH  14  15
ENDBRANCH   5   9
BRANCH   6  21
ATOM     21  C17 UNL     1      14.641  47.907  61.539  0.00  0.00    +0.000 C 
ATOM     22  N2  UNL     1      15.929  48.008  61.623  0.00  0.00    +0.000 NA
BRANCH  22  23
ATOM     23  O2  UNL     1      16.296  48.020  62.973  0.00  0.00    +0.000 OA
ATOM     24  H   UNL     1      16.990  48.578  63.264  0.00  0.00    +0.000 HD
ENDBRANCH  22  23
ENDBRANCH   6  21
TORSDOF 6
ENDMDL
MODEL 8
REMARK VINA RESULT:    -6.206     20.255     22.448
REMARK INTER + INTRA:          -9.097
REMARK INTER:                  -7.500
REMARK INTRA:                  -1.597
REMARK UNBOUND:                -0.895
REMARK  Name = laboratorio_evolutivo\Gen7_Mutante_3.pdb
REMARK  11 active torsions:
REMARK  status: ('A' for Active; 'I' for Inactive)
REMARK    1  A    between atoms: C1_1  and  C2_2
REMARK    2  A    between atoms: C4_5  and  C5_6
REMARK    3  A    between atoms: C8_9  and  C9_10
REMARK    4  A    between atoms: C10_11  and  C11_12
REMARK    5  A    between atoms: C11_12  and  C12_14
REMARK    6  A    between atoms: C12_14  and  C13_15
REMARK    7  A    between atoms: C13_15  and  C14_16
REMARK    8  A    between atoms: C13_15  and  C15_17
REMARK    9  A    between atoms: C16_18  and  C17_19
REMARK   10  A    between atoms: N2_20  and  O2_21
REMARK   11  A    between atoms: C18_22  and  C19_23
REMARK                            x       y       z     vdW  Elec       q    Type
REMARK                         _______ _______ _______ _____ _____    ______ ____
ROOT
ATOM      1  C1  UNL     1      13.430  44.574  57.932  0.00  0.00    +0.000 C 
ATOM      2  C2  UNL     1      14.090  45.821  58.446  0.00  0.00    +0.000 C 
ATOM      3  N1  UNL     1      13.602  46.282  59.617  0.00  0.00    +0.000 NA
ATOM      4  C3  UNL     1      14.138  47.404  60.142  0.00  0.00    +0.000 C 
ATOM      5  C4  UNL     1      15.165  48.142  59.568  0.00  0.00    +0.000 C 
ATOM      6  C16 UNL     1      15.659  47.642  58.342  0.00  0.00    +0.000 C 
ATOM      7  C18 UNL     1      15.138  46.454  57.771  0.00  0.00    +0.000 C 
ATOM      8  C19 UNL     1      15.664  45.899  56.473  0.00  0.00    +0.000 C 
ENDROOT
BRANCH   5   9
ATOM      9  C5  UNL     1      15.669  49.408  60.230  0.00  0.00    +0.000 C 
ATOM     10  C6  UNL     1      15.474  49.570  61.748  0.00  0.00    +0.000 C 
ATOM     11  C7  UNL     1      15.932  51.002  61.984  0.00  0.00    +0.000 C 
ATOM     12  C8  UNL     1      15.366  51.787  60.793  0.00  0.00    +0.000 C 
ATOM     13  C9  UNL     1      16.308  52.901  60.348  0.00  0.00    +0.000 C 
ATOM     14  C10 UNL     1      15.120  50.742  59.675  0.00  0.00    +0.000 C 
BRANCH  14  15
ATOM     15  C11 UNL     1      13.625  50.673  59.354  0.00  0.00    +0.000 C 
ATOM     16  O1  UNL     1      12.776  50.666  60.245  0.00  0.00    +0.000 OA
BRANCH  15  17
ATOM     17  C12 UNL     1      13.258  50.592  57.878  0.00  0.00    +0.000 C 
BRANCH  17  18
ATOM     18  C13 UNL     1      12.435  49.346  57.513  0.00  0.00    +0.000 C 
ATOM     19  C14 UNL     1      10.935  49.652  57.514  0.00  0.00    +0.000 C 
ATOM     20  C15 UNL     1      12.854  48.823  56.139  0.00  0.00    +0.000 C 
ENDBRANCH  17  18
ENDBRANCH  15  17
ENDBRANCH  14  15
ENDBRANCH   5   9
BRANCH   6  21
ATOM     21  C17 UNL     1      16.707  48.354  57.567  0.00  0.00    +0.000 C 
ATOM     22  N2  UNL     1      16.447  49.240  56.661  0.00  0.00    +0.000 NA
BRANCH  22  23
ATOM     23  O2  UNL     1      17.653  49.710  56.127  0.00  0.00    +0.000 OA
ATOM     24  H   UNL     1      18.207  49.132  55.641  0.00  0.00    +0.000 HD
ENDBRANCH  22  23
ENDBRANCH   6  21
TORSDOF 6
ENDMDL
MODEL 9
REMARK VINA RESULT:    -6.007     19.454     21.789
REMARK INTER + INTRA:          -8.833
REMARK INTER:                  -7.562
REMARK INTRA:                  -1.271
REMARK UNBOUND:                -0.895
REMARK  Name = laboratorio_evolutivo\Gen7_Mutante_3.pdb
REMARK  11 active torsions:
REMARK  status: ('A' for Active; 'I' for Inactive)
REMARK    1  A    between atoms: C1_1  and  C2_2
REMARK    2  A    between atoms: C4_5  and  C5_6
REMARK    3  A    between atoms: C8_9  and  C9_10
REMARK    4  A    between atoms: C10_11  and  C11_12
REMARK    5  A    between atoms: C11_12  and  C12_14
REMARK    6  A    between atoms: C12_14  and  C13_15
REMARK    7  A    between atoms: C13_15  and  C14_16
REMARK    8  A    between atoms: C13_15  and  C15_17
REMARK    9  A    between atoms: C16_18  and  C17_19
REMARK   10  A    between atoms: N2_20  and  O2_21
REMARK   11  A    between atoms: C18_22  and  C19_23
REMARK                            x       y       z     vdW  Elec       q    Type
REMARK                         _______ _______ _______ _____ _____    ______ ____
ROOT
ATOM      1  C1  UNL     1      11.254  47.588  54.799  0.00  0.00    +0.000 C 
ATOM      2  C2  UNL     1      12.197  47.956  55.908  0.00  0.00    +0.000 C 
ATOM      3  N1  UNL     1      12.059  47.229  57.037  0.00  0.00    +0.000 NA
ATOM      4  C3  UNL     1      12.866  47.504  58.084  0.00  0.00    +0.000 C 
ATOM      5  C4  UNL     1      13.843  48.491  58.101  0.00  0.00    +0.000 C 
ATOM      6  C16 UNL     1      13.968  49.240  56.909  0.00  0.00    +0.000 C 
ATOM      7  C18 UNL     1      13.154  48.966  55.781  0.00  0.00    +0.000 C 
ATOM      8  C19 UNL     1      13.287  49.744  54.498  0.00  0.00    +0.000 C 
ENDROOT
BRANCH   5   9
ATOM      9  C5  UNL     1      14.672  48.736  59.345  0.00  0.00    +0.000 C 
ATOM     10  C6  UNL     1      14.748  47.624  60.406  0.00  0.00    +0.000 C 
ATOM     11  C7  UNL     1      15.498  48.307  61.541  0.00  0.00    +0.000 C 
ATOM     12  C8  UNL     1      14.912  49.725  61.588  0.00  0.00    +0.000 C 
ATOM     13  C9  UNL     1      15.967  50.762  61.960  0.00  0.00    +0.000 C 
ATOM     14  C10 UNL     1      14.305  49.980  60.185  0.00  0.00    +0.000 C 
BRANCH  14  15
ATOM     15  C11 UNL     1      12.792  50.180  60.308  0.00  0.00    +0.000 C 
ATOM     16  O1  UNL     1      12.172  50.893  59.518  0.00  0.00    +0.000 OA
BRANCH  15  17
ATOM     17  C12 UNL     1      12.112  49.467  61.468  0.00  0.00    +0.000 C 
BRANCH  17  18
ATOM     18  C13 UNL     1      10.996  48.504  61.034  0.00  0.00    +0.000 C 
ATOM     19  C14 UNL     1      11.217  47.102  61.607  0.00  0.00    +0.000 C 
ATOM     20  C15 UNL     1       9.636  49.038  61.488  0.00  0.00    +0.000 C 
ENDBRANCH  17  18
ENDBRANCH  15  17
ENDBRANCH  14  15
ENDBRANCH   5   9
BRANCH   6  21
ATOM     21  C17 UNL     1      14.916  50.377  56.791  0.00  0.00    +0.000 C 
ATOM     22  N2  UNL     1      14.620  51.593  57.123  0.00  0.00    +0.000 NA
BRANCH  22  23
ATOM     23  O2  UNL     1      15.729  52.412  56.886  0.00  0.00    +0.000 OA
ATOM     24  H   UNL     1      16.594  52.054  56.935  0.00  0.00    +0.000 HD
ENDBRANCH  22  23
ENDBRANCH   6  21
TORSDOF 6
ENDMDL
