MODEL 1
REMARK VINA RESULT:    -8.540      0.000      0.000
REMARK INTER + INTRA:         -11.757
REMARK INTER:                 -11.285
REMARK INTRA:                  -0.472
REMARK UNBOUND:                -0.472
REMARK  Name = laboratorio_evolutivo\Gen7_Mutante_8.pdb
REMARK  11 active torsions:
REMARK  status: ('A' for Active; 'I' for Inactive)
REMARK    1  A    between atoms: C1_1  and  C2_2
REMARK    2  A    between atoms: C4_4  and  C5_5
REMARK    3  A    between atoms: N1_6  and  O1_7
REMARK    4  A    between atoms: C6_8  and  C7_9
REMARK    5  A    between atoms: C10_12  and  C11_13
REMARK    6  A    between atoms: C12_14  and  C13_15
REMARK    7  A    between atoms: C13_15  and  C14_17
REMARK    8  A    between atoms: C14_17  and  C15_18
REMARK    9  A    between atoms: C15_18  and  C16_19
REMARK   10  A    between atoms: C15_18  and  C17_20
REMARK   11  A    between atoms: C18_21  and  C19_22
REMARK                            x       y       z     vdW  Elec       q    Type
REMARK                         _______ _______ _______ _____ _____    ______ ____
ROOT
ATOM      1  C1  UNL     1       5.043  65.462  69.189  0.00  0.00    +0.000 C 
ATOM      2  C2  UNL     1       4.659  66.093  67.885  0.00  0.00    +0.000 C 
ATOM      3  C3  UNL     1       4.925  65.451  66.696  0.00  0.00    +0.000 C 
ATOM      4  C4  UNL     1       4.540  66.060  65.497  0.00  0.00    +0.000 C 
ATOM      5  C6  UNL     1       3.869  67.299  65.481  0.00  0.00    +0.000 C 
ATOM      6  C18 UNL     1       3.701  67.893  66.751  0.00  0.00    +0.000 C 
ATOM      7  C19 UNL     1       3.151  69.281  66.943  0.00  0.00    +0.000 C 
ATOM      8  N2  UNL     1       4.067  67.298  67.916  0.00  0.00    +0.000 NA
ENDROOT
BRANCH   5   9
ATOM      9  C7  UNL     1       3.314  67.996  64.246  0.00  0.00    +0.000 C 
ATOM     10  C8  UNL     1       3.533  67.454  62.827  0.00  0.00    +0.000 C 
ATOM     11  C9  UNL     1       2.575  68.240  61.931  0.00  0.00    +0.000 C 
ATOM     12  C10 UNL     1       1.557  68.905  62.870  0.00  0.00    +0.000 C 
ATOM     13  C11 UNL     1       0.135  68.858  62.332  0.00  0.00    +0.000 C 
ATOM     14  C12 UNL     1       1.786  68.274  64.258  0.00  0.00    +0.000 C 
BRANCH  14  15
ATOM     15  C13 UNL     1       0.917  67.038  64.502  0.00  0.00    +0.000 C 
ATOM     16  O2  UNL     1       1.207  65.930  64.054  0.00  0.00    +0.000 OA
BRANCH  15  17
ATOM     17  C14 UNL     1      -0.380  67.237  65.268  0.00  0.00    +0.000 C 
BRANCH  17  18
ATOM     18  C15 UNL     1      -0.172  67.739  66.703  0.00  0.00    +0.000 C 
ATOM     19  C16 UNL     1      -0.596  69.205  66.799  0.00  0.00    +0.000 C 
ATOM     20  C17 UNL     1      -0.958  66.902  67.721  0.00  0.00    +0.000 C 
ENDBRANCH  17  18
ENDBRANCH  15  17
ENDBRANCH  14  15
ENDBRANCH   5   9
BRANCH   4  21
ATOM     21  C5  UNL     1       5.050  65.390  64.287  0.00  0.00    +0.000 C 
ATOM     22  N1  UNL     1       4.540  64.378  63.659  0.00  0.00    +0.000 NA
BRANCH  22  23
ATOM     23  O1  UNL     1       3.318  63.975  64.217  0.00  0.00    +0.000 OA
ATOM     24  H   UNL     1       3.241  63.862  65.143  0.00  0.00    +0.000 HD
ENDBRANCH  22  23
ENDBRANCH   4  21
TORSDOF 6
ENDMDL
MODEL 2
REMARK VINA RESULT:    -8.345      6.318      8.999
REMARK INTER + INTRA:         -11.500
REMARK INTER:                 -10.507
REMARK INTRA:                  -0.993
REMARK UNBOUND:                -0.472
REMARK  Name = laboratorio_evolutivo\Gen7_Mutante_8.pdb
REMARK  11 active torsions:
REMARK  status: ('A' for Active; 'I' for Inactive)
REMARK    1  A    between atoms: C1_1  and  C2_2
REMARK    2  A    between atoms: C4_4  and  C5_5
REMARK    3  A    between atoms: N1_6  and  O1_7
REMARK    4  A    between atoms: C6_8  and  C7_9
REMARK    5  A    between atoms: C10_12  and  C11_13
REMARK    6  A    between atoms: C12_14  and  C13_15
REMARK    7  A    between atoms: C13_15  and  C14_17
REMARK    8  A    between atoms: C14_17  and  C15_18
REMARK    9  A    between atoms: C15_18  and  C16_19
REMARK   10  A    between atoms: C15_18  and  C17_20
REMARK   11  A    between atoms: C18_21  and  C19_22
REMARK                            x       y       z     vdW  Elec       q    Type
REMARK                         _______ _______ _______ _____ _____    ______ ____
ROOT
ATOM      1  C1  UNL     1       4.224  65.847  69.107  0.00  0.00    +0.000 C 
ATOM      2  C2  UNL     1       3.634  64.509  69.431  0.00  0.00    +0.000 C 
ATOM      3  C3  UNL     1       4.450  63.420  69.641  0.00  0.00    +0.000 C 
ATOM      4  C4  UNL     1       3.867  62.188  69.958  0.00  0.00    +0.000 C 
ATOM      5  C6  UNL     1       2.470  62.044  70.087  0.00  0.00    +0.000 C 
ATOM      6  C18 UNL     1       1.729  63.209  69.792  0.00  0.00    +0.000 C 
ATOM      7  C19 UNL     1       0.226  63.230  69.719  0.00  0.00    +0.000 C 
ATOM      8  N2  UNL     1       2.296  64.408  69.494  0.00  0.00    +0.000 NA
ENDROOT
BRANCH   5   9
ATOM      9  C7  UNL     1       1.742  60.782  70.528  0.00  0.00    +0.000 C 
ATOM     10  C8  UNL     1       2.432  59.412  70.585  0.00  0.00    +0.000 C 
ATOM     11  C9  UNL     1       1.478  58.500  71.361  0.00  0.00    +0.000 C 
ATOM     12  C10 UNL     1       0.483  59.429  72.075  0.00  0.00    +0.000 C 
ATOM     13  C11 UNL     1       0.169  58.981  73.493  0.00  0.00    +0.000 C 
ATOM     14  C12 UNL     1       1.045  60.856  71.914  0.00  0.00    +0.000 C 
BRANCH  14  15
ATOM     15  C13 UNL     1       1.963  61.268  73.066  0.00  0.00    +0.000 C 
ATOM     16  O2  UNL     1       3.025  60.694  73.301  0.00  0.00    +0.000 OA
BRANCH  15  17
ATOM     17  C14 UNL     1       1.481  62.385  73.978  0.00  0.00    +0.000 C 
BRANCH  17  18
ATOM     18  C15 UNL     1       0.042  62.831  73.689  0.00  0.00    +0.000 C 
ATOM     19  C16 UNL     1      -0.806  62.677  74.952  0.00  0.00    +0.000 C 
ATOM     20  C17 UNL     1      -0.018  64.283  73.195  0.00  0.00    +0.000 C 
ENDBRANCH  17  18
ENDBRANCH  15  17
ENDBRANCH  14  15
ENDBRANCH   5   9
BRANCH   4  21
ATOM     21  C5  UNL     1       4.810  61.055  69.961  0.00  0.00    +0.000 C 
ATOM     22  N1  UNL     1       5.610  60.684  70.911  0.00  0.00    +0.000 NA
BRANCH  22  23
ATOM     23  O1  UNL     1       5.445  61.459  72.068  0.00  0.00    +0.000 OA
ATOM     24  H   UNL     1       6.190  61.687  72.589  0.00  0.00    +0.000 HD
ENDBRANCH  22  23
ENDBRANCH   4  21
TORSDOF 6
ENDMDL
MODEL 3
REMARK VINA RESULT:    -8.319      2.307      4.617
REMARK INTER + INTRA:         -11.466
REMARK INTER:                 -12.079
REMARK INTRA:                   0.613
REMARK UNBOUND:                -0.472
REMARK  Name = laboratorio_evolutivo\Gen7_Mutante_8.pdb
REMARK  11 active torsions:
REMARK  status: ('A' for Active; 'I' for Inactive)
REMARK    1  A    between atoms: C1_1  and  C2_2
REMARK    2  A    between atoms: C4_4  and  C5_5
REMARK    3  A    between atoms: N1_6  and  O1_7
REMARK    4  A    between atoms: C6_8  and  C7_9
REMARK    5  A    between atoms: C10_12  and  C11_13
REMARK    6  A    between atoms: C12_14  and  C13_15
REMARK    7  A    between atoms: C13_15  and  C14_17
REMARK    8  A    between atoms: C14_17  and  C15_18
REMARK    9  A    between atoms: C15_18  and  C16_19
REMARK   10  A    between atoms: C15_18  and  C17_20
REMARK   11  A    between atoms: C18_21  and  C19_22
REMARK                            x       y       z     vdW  Elec       q    Type
REMARK                         _______ _______ _______ _____ _____    ______ ____
ROOT
ATOM      1  C1  UNL     1       0.180  65.074  70.538  0.00  0.00    +0.000 C 
ATOM      2  C2  UNL     1       0.788  65.834  69.398  0.00  0.00    +0.000 C 
ATOM      3  C3  UNL     1      -0.003  66.598  68.570  0.00  0.00    +0.000 C 
ATOM      4  C4  UNL     1       0.599  67.309  67.525  0.00  0.00    +0.000 C 
ATOM      5  C6  UNL     1       1.993  67.275  67.318  0.00  0.00    +0.000 C 
ATOM      6  C18 UNL     1       2.697  66.415  68.188  0.00  0.00    +0.000 C 
ATOM      7  C19 UNL     1       4.164  66.116  68.038  0.00  0.00    +0.000 C 
ATOM      8  N2  UNL     1       2.114  65.732  69.209  0.00  0.00    +0.000 NA
ENDROOT
BRANCH   5   9
ATOM      9  C7  UNL     1       2.759  68.088  66.283  0.00  0.00    +0.000 C 
ATOM     10  C8  UNL     1       4.287  68.024  66.153  0.00  0.00    +0.000 C 
ATOM     11  C9  UNL     1       4.619  68.717  64.829  0.00  0.00    +0.000 C 
ATOM     12  C10 UNL     1       3.301  68.795  64.044  0.00  0.00    +0.000 C 
ATOM     13  C11 UNL     1       3.475  68.494  62.564  0.00  0.00    +0.000 C 
ATOM     14  C12 UNL     1       2.297  67.911  64.810  0.00  0.00    +0.000 C 
BRANCH  14  15
ATOM     15  C13 UNL     1       2.282  66.462  64.319  0.00  0.00    +0.000 C 
ATOM     16  O2  UNL     1       1.238  65.841  64.131  0.00  0.00    +0.000 OA
BRANCH  15  17
ATOM     17  C14 UNL     1       3.624  65.773  64.136  0.00  0.00    +0.000 C 
BRANCH  17  18
ATOM     18  C15 UNL     1       3.529  64.242  64.129  0.00  0.00    +0.000 C 
ATOM     19  C16 UNL     1       4.662  63.662  63.280  0.00  0.00    +0.000 C 
ATOM     20  C17 UNL     1       3.589  63.658  65.547  0.00  0.00    +0.000 C 
ENDBRANCH  17  18
ENDBRANCH  15  17
ENDBRANCH  14  15
ENDBRANCH   5   9
BRANCH   4  21
ATOM     21  C5  UNL     1      -0.354  67.925  66.585  0.00  0.00    +0.000 C 
ATOM     22  N1  UNL     1      -0.749  69.158  66.542  0.00  0.00    +0.000 NA
BRANCH  22  23
ATOM     23  O1  UNL     1      -0.090  69.954  67.490  0.00  0.00    +0.000 OA
ATOM     24  H   UNL     1      -0.043  69.676  68.383  0.00  0.00    +0.000 HD
ENDBRANCH  22  23
ENDBRANCH   4  21
TORSDOF 6
ENDMDL
MODEL 4
REMARK VINA RESULT:    -8.182      2.151      3.242
REMARK INTER + INTRA:         -11.285
REMARK INTER:                 -10.854
REMARK INTRA:                  -0.431
REMARK UNBOUND:                -0.472
REMARK  Name = laboratorio_evolutivo\Gen7_Mutante_8.pdb
REMARK  11 active torsions:
REMARK  status: ('A' for Active; 'I' for Inactive)
REMARK    1  A    between atoms: C1_1  and  C2_2
REMARK    2  A    between atoms: C4_4  and  C5_5
REMARK    3  A    between atoms: N1_6  and  O1_7
REMARK    4  A    between atoms: C6_8  and  C7_9
REMARK    5  A    between atoms: C10_12  and  C11_13
REMARK    6  A    between atoms: C12_14  and  C13_15
REMARK    7  A    between atoms: C13_15  and  C14_17
REMARK    8  A    between atoms: C14_17  and  C15_18
REMARK    9  A    between atoms: C15_18  and  C16_19
REMARK   10  A    between atoms: C15_18  and  C17_20
REMARK   11  A    between atoms: C18_21  and  C19_22
REMARK                            x       y       z     vdW  Elec       q    Type
REMARK                         _______ _______ _______ _____ _____    ______ ____
ROOT
ATOM      1  C1  UNL     1       0.397  65.493  70.016  0.00  0.00    +0.000 C 
ATOM      2  C2  UNL     1       1.361  66.098  69.041  0.00  0.00    +0.000 C 
ATOM      3  C3  UNL     1       2.477  65.399  68.639  0.00  0.00    +0.000 C 
ATOM      4  C4  UNL     1       3.348  65.987  67.715  0.00  0.00    +0.000 C 
ATOM      5  C6  UNL     1       3.097  67.264  67.173  0.00  0.00    +0.000 C 
ATOM      6  C18 UNL     1       1.959  67.912  67.699  0.00  0.00    +0.000 C 
ATOM      7  C19 UNL     1       1.600  69.337  67.372  0.00  0.00    +0.000 C 
ATOM      8  N2  UNL     1       1.107  67.338  68.589  0.00  0.00    +0.000 NA
ENDROOT
BRANCH   5   9
ATOM      9  C7  UNL     1       3.918  67.948  66.089  0.00  0.00    +0.000 C 
ATOM     10  C8  UNL     1       5.282  67.415  65.630  0.00  0.00    +0.000 C 
ATOM     11  C9  UNL     1       5.614  68.177  64.345  0.00  0.00    +0.000 C 
ATOM     12  C10 UNL     1       4.298  68.813  63.872  0.00  0.00    +0.000 C 
ATOM     13  C11 UNL     1       4.108  68.729  62.365  0.00  0.00    +0.000 C 
ATOM     14  C12 UNL     1       3.188  68.185  64.739  0.00  0.00    +0.000 C 
BRANCH  14  15
ATOM     15  C13 UNL     1       2.583  66.926  64.114  0.00  0.00    +0.000 C 
ATOM     16  O2  UNL     1       3.274  66.050  63.597  0.00  0.00    +0.000 OA
BRANCH  15  17
ATOM     17  C14 UNL     1       1.067  66.821  64.084  0.00  0.00    +0.000 C 
BRANCH  17  18
ATOM     18  C15 UNL     1       0.360  68.182  64.068  0.00  0.00    +0.000 C 
ATOM     19  C16 UNL     1      -0.040  68.536  62.635  0.00  0.00    +0.000 C 
ATOM     20  C17 UNL     1      -0.880  68.193  64.973  0.00  0.00    +0.000 C 
ENDBRANCH  17  18
ENDBRANCH  15  17
ENDBRANCH  14  15
ENDBRANCH   5   9
BRANCH   4  21
ATOM     21  C5  UNL     1       4.605  65.244  67.511  0.00  0.00    +0.000 C 
ATOM     22  N1  UNL     1       5.630  65.175  68.301  0.00  0.00    +0.000 NA
BRANCH  22  23
ATOM     23  O1  UNL     1       5.410  65.857  69.507  0.00  0.00    +0.000 OA
ATOM     24  H   UNL     1       5.775  66.709  69.636  0.00  0.00    +0.000 HD
ENDBRANCH  22  23
ENDBRANCH   4  21
TORSDOF 6
ENDMDL
MODEL 5
REMARK VINA RESULT:    -7.994      1.918      3.848
REMARK INTER + INTRA:         -11.036
REMARK INTER:                 -11.406
REMARK INTRA:                   0.370
REMARK UNBOUND:                -0.472
REMARK  Name = laboratorio_evolutivo\Gen7_Mutante_8.pdb
REMARK  11 active torsions:
REMARK  status: ('A' for Active; 'I' for Inactive)
REMARK    1  A    between atoms: C1_1  and  C2_2
REMARK    2  A    between atoms: C4_4  and  C5_5
REMARK    3  A    between atoms: N1_6  and  O1_7
REMARK    4  A    between atoms: C6_8  and  C7_9
REMARK    5  A    between atoms: C10_12  and  C11_13
REMARK    6  A    between atoms: C12_14  and  C13_15
REMARK    7  A    between atoms: C13_15  and  C14_17
REMARK    8  A    between atoms: C14_17  and  C15_18
REMARK    9  A    between atoms: C15_18  and  C16_19
REMARK   10  A    between atoms: C15_18  and  C17_20
REMARK   11  A    between atoms: C18_21  and  C19_22
REMARK                            x       y       z     vdW  Elec       q    Type
REMARK                         _______ _______ _______ _____ _____    ______ ____
ROOT
ATOM      1  C1  UNL     1       5.384  64.960  69.001  0.00  0.00    +0.000 C 
ATOM      2  C2  UNL     1       4.186  65.771  68.609  0.00  0.00    +0.000 C 
ATOM      3  C3  UNL     1       4.319  66.840  67.751  0.00  0.00    +0.000 C 
ATOM      4  C4  UNL     1       3.177  67.566  67.392  0.00  0.00    +0.000 C 
ATOM      5  C6  UNL     1       1.899  67.214  67.870  0.00  0.00    +0.000 C 
ATOM      6  C18 UNL     1       1.888  66.141  68.787  0.00  0.00    +0.000 C 
ATOM      7  C19 UNL     1       0.654  65.707  69.531  0.00  0.00    +0.000 C 
ATOM      8  N2  UNL     1       2.995  65.429  69.128  0.00  0.00    +0.000 NA
ENDROOT
BRANCH   5   9
ATOM      9  C7  UNL     1       0.585  67.867  67.462  0.00  0.00    +0.000 C 
ATOM     10  C8  UNL     1       0.455  69.378  67.227  0.00  0.00    +0.000 C 
ATOM     11  C9  UNL     1      -0.898  69.576  66.542  0.00  0.00    +0.000 C 
ATOM     12  C10 UNL     1      -1.327  68.192  66.032  0.00  0.00    +0.000 C 
ATOM     13  C11 UNL     1      -1.955  68.239  64.648  0.00  0.00    +0.000 C 
ATOM     14  C12 UNL     1      -0.095  67.279  66.195  0.00  0.00    +0.000 C 
BRANCH  14  15
ATOM     15  C13 UNL     1       0.795  67.251  64.951  0.00  0.00    +0.000 C 
ATOM     16  O2  UNL     1       1.474  66.271  64.649  0.00  0.00    +0.000 OA
BRANCH  15  17
ATOM     17  C14 UNL     1       0.877  68.522  64.122  0.00  0.00    +0.000 C 
BRANCH  17  18
ATOM     18  C15 UNL     1       1.081  68.263  62.624  0.00  0.00    +0.000 C 
ATOM     19  C16 UNL     1       0.126  69.144  61.817  0.00  0.00    +0.000 C 
ATOM     20  C17 UNL     1       2.528  68.528  62.189  0.00  0.00    +0.000 C 
ENDBRANCH  17  18
ENDBRANCH  15  17
ENDBRANCH  14  15
ENDBRANCH   5   9
BRANCH   4  21
ATOM     21  C5  UNL     1       3.458  68.802  66.640  0.00  0.00    +0.000 C 
ATOM     22  N1  UNL     1       4.011  68.919  65.474  0.00  0.00    +0.000 NA
BRANCH  22  23
ATOM     23  O1  UNL     1       4.277  67.672  64.891  0.00  0.00    +0.000 OA
ATOM     24  H   UNL     1       4.466  67.614  63.976  0.00  0.00    +0.000 HD
ENDBRANCH  22  23
ENDBRANCH   4  21
TORSDOF 6
ENDMDL
MODEL 6
REMARK VINA RESULT:    -7.592      2.364      4.427
REMARK INTER + INTRA:         -10.505
REMARK INTER:                 -10.083
REMARK INTRA:                  -0.422
REMARK UNBOUND:                -0.472
REMARK  Name = laboratorio_evolutivo\Gen7_Mutante_8.pdb
REMARK  11 active torsions:
REMARK  status: ('A' for Active; 'I' for Inactive)
REMARK    1  A    between atoms: C1_1  and  C2_2
REMARK    2  A    between atoms: C4_4  and  C5_5
REMARK    3  A    between atoms: N1_6  and  O1_7
REMARK    4  A    between atoms: C6_8  and  C7_9
REMARK    5  A    between atoms: C10_12  and  C11_13
REMARK    6  A    between atoms: C12_14  and  C13_15
REMARK    7  A    between atoms: C13_15  and  C14_17
REMARK    8  A    between atoms: C14_17  and  C15_18
REMARK    9  A    between atoms: C15_18  and  C16_19
REMARK   10  A    between atoms: C15_18  and  C17_20
REMARK   11  A    between atoms: C18_21  and  C19_22
REMARK                            x       y       z     vdW  Elec       q    Type
REMARK                         _______ _______ _______ _____ _____    ______ ____
ROOT
ATOM      1  C1  UNL     1       4.942  64.838  69.540  0.00  0.00    +0.000 C 
ATOM      2  C2  UNL     1       3.778  65.621  69.013  0.00  0.00    +0.000 C 
ATOM      3  C3  UNL     1       3.986  66.766  68.277  0.00  0.00    +0.000 C 
ATOM      4  C4  UNL     1       2.877  67.465  67.785  0.00  0.00    +0.000 C 
ATOM      5  C6  UNL     1       1.561  67.011  68.007  0.00  0.00    +0.000 C 
ATOM      6  C18 UNL     1       1.464  65.862  68.822  0.00  0.00    +0.000 C 
ATOM      7  C19 UNL     1       0.153  65.306  69.306  0.00  0.00    +0.000 C 
ATOM      8  N2  UNL     1       2.541  65.178  69.292  0.00  0.00    +0.000 NA
ENDROOT
BRANCH   5   9
ATOM      9  C7  UNL     1       0.296  67.633  67.432  0.00  0.00    +0.000 C 
ATOM     10  C8  UNL     1       0.108  69.152  67.310  0.00  0.00    +0.000 C 
ATOM     11  C9  UNL     1      -1.119  69.346  66.416  0.00  0.00    +0.000 C 
ATOM     12  C10 UNL     1      -1.360  67.998  65.720  0.00  0.00    +0.000 C 
ATOM     13  C11 UNL     1      -1.743  68.148  64.256  0.00  0.00    +0.000 C 
ATOM     14  C12 UNL     1      -0.116  67.138  66.018  0.00  0.00    +0.000 C 
BRANCH  14  15
ATOM     15  C13 UNL     1       0.974  67.276  64.954  0.00  0.00    +0.000 C 
ATOM     16  O2  UNL     1       1.332  68.368  64.516  0.00  0.00    +0.000 OA
BRANCH  15  17
ATOM     17  C14 UNL     1       1.563  65.995  64.388  0.00  0.00    +0.000 C 
BRANCH  17  18
ATOM     18  C15 UNL     1       3.082  65.885  64.575  0.00  0.00    +0.000 C 
ATOM     19  C16 UNL     1       3.414  64.593  65.323  0.00  0.00    +0.000 C 
ATOM     20  C17 UNL     1       3.828  65.918  63.234  0.00  0.00    +0.000 C 
ENDBRANCH  17  18
ENDBRANCH  15  17
ENDBRANCH  14  15
ENDBRANCH   5   9
BRANCH   4  21
ATOM     21  C5  UNL     1       3.202  68.774  67.192  0.00  0.00    +0.000 C 
ATOM     22  N1  UNL     1       3.112  69.945  67.740  0.00  0.00    +0.000 NA
BRANCH  22  23
ATOM     23  O1  UNL     1       2.720  69.866  69.084  0.00  0.00    +0.000 OA
ATOM     24  H   UNL     1       3.288  70.186  69.757  0.00  0.00    +0.000 HD
ENDBRANCH  22  23
ENDBRANCH   4  21
TORSDOF 6
ENDMDL
MODEL 7
REMARK VINA RESULT:    -7.312      7.422     10.036
REMARK INTER + INTRA:         -10.135
REMARK INTER:                  -9.586
REMARK INTRA:                  -0.549
REMARK UNBOUND:                -0.472
REMARK  Name = laboratorio_evolutivo\Gen7_Mutante_8.pdb
REMARK  11 active torsions:
REMARK  status: ('A' for Active; 'I' for Inactive)
REMARK    1  A    between atoms: C1_1  and  C2_2
REMARK    2  A    between atoms: C4_4  and  C5_5
REMARK    3  A    between atoms: N1_6  and  O1_7
REMARK    4  A    between atoms: C6_8  and  C7_9
REMARK    5  A    between atoms: C10_12  and  C11_13
REMARK    6  A    between atoms: C12_14  and  C13_15
REMARK    7  A    between atoms: C13_15  and  C14_17
REMARK    8  A    between atoms: C14_17  and  C15_18
REMARK    9  A    between atoms: C15_18  and  C16_19
REMARK   10  A    between atoms: C15_18  and  C17_20
REMARK   11  A    between atoms: C18_21  and  C19_22
REMARK                            x       y       z     vdW  Elec       q    Type
REMARK                         _______ _______ _______ _____ _____    ______ ____
ROOT
ATOM      1  C1  UNL     1       4.665  63.803  69.687  0.00  0.00    +0.000 C 
ATOM      2  C2  UNL     1       3.696  62.757  70.148  0.00  0.00    +0.000 C 
ATOM      3  C3  UNL     1       4.140  61.500  70.492  0.00  0.00    +0.000 C 
ATOM      4  C4  UNL     1       3.211  60.552  70.934  0.00  0.00    +0.000 C 
ATOM      5  C6  UNL     1       1.841  60.861  71.055  0.00  0.00    +0.000 C 
ATOM      6  C18 UNL     1       1.490  62.158  70.620  0.00  0.00    +0.000 C 
ATOM      7  C19 UNL     1       0.067  62.634  70.520  0.00  0.00    +0.000 C 
ATOM      8  N2  UNL     1       2.394  63.082  70.200  0.00  0.00    +0.000 NA
ENDROOT
BRANCH   5   9
ATOM      9  C7  UNL     1       0.767  59.943  71.622  0.00  0.00    +0.000 C 
ATOM     10  C8  UNL     1       1.018  58.453  71.893  0.00  0.00    +0.000 C 
ATOM     11  C9  UNL     1      -0.170  57.980  72.734  0.00  0.00    +0.000 C 
ATOM     12  C10 UNL     1      -0.849  59.249  73.269  0.00  0.00    +0.000 C 
ATOM     13  C11 UNL     1      -1.294  59.117  74.718  0.00  0.00    +0.000 C 
ATOM     14  C12 UNL     1       0.112  60.412  72.951  0.00  0.00    +0.000 C 
BRANCH  14  15
ATOM     15  C13 UNL     1       1.103  60.694  74.082  0.00  0.00    +0.000 C 
ATOM     16  O2  UNL     1       1.904  59.851  74.482  0.00  0.00    +0.000 OA
BRANCH  15  17
ATOM     17  C14 UNL     1       1.016  62.050  74.764  0.00  0.00    +0.000 C 
BRANCH  17  18
ATOM     18  C15 UNL     1      -0.284  62.804  74.460  0.00  0.00    +0.000 C 
ATOM     19  C16 UNL     1      -1.058  63.035  75.759  0.00  0.00    +0.000 C 
ATOM     20  C17 UNL     1      -0.018  64.147  73.767  0.00  0.00    +0.000 C 
ENDBRANCH  17  18
ENDBRANCH  15  17
ENDBRANCH  14  15
ENDBRANCH   5   9
BRANCH   4  21
ATOM     21  C5  UNL     1       3.758  59.191  71.080  0.00  0.00    +0.000 C 
ATOM     22  N1  UNL     1       3.928  58.295  70.159  0.00  0.00    +0.000 NA
BRANCH  22  23
ATOM     23  O1  UNL     1       3.596  58.781  68.886  0.00  0.00    +0.000 OA
ATOM     24  H   UNL     1       4.259  59.155  68.340  0.00  0.00    +0.000 HD
ENDBRANCH  22  23
ENDBRANCH   4  21
TORSDOF 6
ENDMDL
MODEL 8
REMARK VINA RESULT:    -6.544     20.253     22.836
REMARK INTER + INTRA:          -9.120
REMARK INTER:                  -8.091
REMARK INTRA:                  -1.029
REMARK UNBOUND:                -0.472
REMARK  Name = laboratorio_evolutivo\Gen7_Mutante_8.pdb
REMARK  11 active torsions:
REMARK  status: ('A' for Active; 'I' for Inactive)
REMARK    1  A    between atoms: C1_1  and  C2_2
REMARK    2  A    between atoms: C4_4  and  C5_5
REMARK    3  A    between atoms: N1_6  and  O1_7
REMARK    4  A    between atoms: C6_8  and  C7_9
REMARK    5  A    between atoms: C10_12  and  C11_13
REMARK    6  A    between atoms: C12_14  and  C13_15
REMARK    7  A    between atoms: C13_15  and  C14_17
REMARK    8  A    between atoms: C14_17  and  C15_18
REMARK    9  A    between atoms: C15_18  and  C16_19
REMARK   10  A    between atoms: C15_18  and  C17_20
REMARK   11  A    between atoms: C18_21  and  C19_22
REMARK                            x       y       z     vdW  Elec       q    Type
REMARK                         _______ _______ _______ _____ _____    ______ ____
ROOT
ATOM      1  C1  UNL     1      14.038  44.423  62.664  0.00  0.00    +0.000 C 
ATOM      2  C2  UNL     1      13.967  45.838  62.176  0.00  0.00    +0.000 C 
ATOM      3  C3  UNL     1      15.042  46.683  62.333  0.00  0.00    +0.000 C 
ATOM      4  C4  UNL     1      14.949  47.994  61.851  0.00  0.00    +0.000 C 
ATOM      5  C6  UNL     1      13.792  48.457  61.192  0.00  0.00    +0.000 C 
ATOM      6  C18 UNL     1      12.732  47.525  61.139  0.00  0.00    +0.000 C 
ATOM      7  C19 UNL     1      11.362  47.867  60.620  0.00  0.00    +0.000 C 
ATOM      8  N2  UNL     1      12.826  46.249  61.599  0.00  0.00    +0.000 NA
ENDROOT
BRANCH   5   9
ATOM      9  C7  UNL     1      13.625  49.822  60.540  0.00  0.00    +0.000 C 
ATOM     10  C8  UNL     1      14.295  51.087  61.095  0.00  0.00    +0.000 C 
ATOM     11  C9  UNL     1      14.144  52.148  60.003  0.00  0.00    +0.000 C 
ATOM     12  C10 UNL     1      13.776  51.392  58.717  0.00  0.00    +0.000 C 
ATOM     13  C11 UNL     1      14.490  51.932  57.488  0.00  0.00    +0.000 C 
ATOM     14  C12 UNL     1      13.985  49.897  59.030  0.00  0.00    +0.000 C 
BRANCH  14  15
ATOM     15  C13 UNL     1      15.394  49.407  58.688  0.00  0.00    +0.000 C 
ATOM     16  O2  UNL     1      16.405  50.013  59.037  0.00  0.00    +0.000 OA
BRANCH  15  17
ATOM     17  C14 UNL     1      15.509  48.162  57.824  0.00  0.00    +0.000 C 
BRANCH  17  18
ATOM     18  C15 UNL     1      14.207  47.356  57.737  0.00  0.00    +0.000 C 
ATOM     19  C16 UNL     1      13.728  47.310  56.285  0.00  0.00    +0.000 C 
ATOM     20  C17 UNL     1      14.381  45.928  58.273  0.00  0.00    +0.000 C 
ENDBRANCH  17  18
ENDBRANCH  15  17
ENDBRANCH  14  15
ENDBRANCH   5   9
BRANCH   4  21
ATOM     21  C5  UNL     1      16.068  48.867  62.250  0.00  0.00    +0.000 C 
ATOM     22  N1  UNL     1      16.234  49.490  63.373  0.00  0.00    +0.000 NA
BRANCH  22  23
ATOM     23  O1  UNL     1      15.221  49.190  64.295  0.00  0.00    +0.000 OA
ATOM     24  H   UNL     1      14.323  49.314  64.061  0.00  0.00    +0.000 HD
ENDBRANCH  22  23
ENDBRANCH   4  21
TORSDOF 6
ENDMDL
MODEL 9
REMARK VINA RESULT:    -6.513      7.766     10.459
REMARK INTER + INTRA:          -9.079
REMARK INTER:                  -8.709
REMARK INTRA:                  -0.370
REMARK UNBOUND:                -0.472
REMARK  Name = laboratorio_evolutivo\Gen7_Mutante_8.pdb
REMARK  11 active torsions:
REMARK  status: ('A' for Active; 'I' for Inactive)
REMARK    1  A    between atoms: C1_1  and  C2_2
REMARK    2  A    between atoms: C4_4  and  C5_5
REMARK    3  A    between atoms: N1_6  and  O1_7
REMARK    4  A    between atoms: C6_8  and  C7_9
REMARK    5  A    between atoms: C10_12  and  C11_13
REMARK    6  A    between atoms: C12_14  and  C13_15
REMARK    7  A    between atoms: C13_15  and  C14_17
REMARK    8  A    between atoms: C14_17  and  C15_18
REMARK    9  A    between atoms: C15_18  and  C16_19
REMARK   10  A    between atoms: C15_18  and  C17_20
REMARK   11  A    between atoms: C18_21  and  C19_22
REMARK                            x       y       z     vdW  Elec       q    Type
REMARK                         _______ _______ _______ _____ _____    ______ ____
ROOT
ATOM      1  C1  UNL     1      -0.792  56.408  73.615  0.00  0.00    +0.000 C 
ATOM      2  C2  UNL     1       0.250  57.420  73.245  0.00  0.00    +0.000 C 
ATOM      3  C3  UNL     1       0.380  58.583  73.970  0.00  0.00    +0.000 C 
ATOM      4  C4  UNL     1       1.373  59.500  73.607  0.00  0.00    +0.000 C 
ATOM      5  C6  UNL     1       2.253  59.248  72.535  0.00  0.00    +0.000 C 
ATOM      6  C18 UNL     1       1.991  58.056  71.827  0.00  0.00    +0.000 C 
ATOM      7  C19 UNL     1       2.710  57.678  70.560  0.00  0.00    +0.000 C 
ATOM      8  N2  UNL     1       1.032  57.161  72.184  0.00  0.00    +0.000 NA
ENDROOT
BRANCH   5   9
ATOM      9  C7  UNL     1       3.429  60.124  72.124  0.00  0.00    +0.000 C 
ATOM     10  C8  UNL     1       4.599  59.590  71.287  0.00  0.00    +0.000 C 
ATOM     11  C9  UNL     1       5.381  60.824  70.834  0.00  0.00    +0.000 C 
ATOM     12  C10 UNL     1       4.452  62.026  71.056  0.00  0.00    +0.000 C 
ATOM     13  C11 UNL     1       4.510  63.038  69.922  0.00  0.00    +0.000 C 
ATOM     14  C12 UNL     1       3.064  61.436  71.377  0.00  0.00    +0.000 C 
BRANCH  14  15
ATOM     15  C13 UNL     1       2.197  61.238  70.132  0.00  0.00    +0.000 C 
ATOM     16  O2  UNL     1       2.531  60.499  69.208  0.00  0.00    +0.000 OA
BRANCH  15  17
ATOM     17  C14 UNL     1       0.920  62.056  70.033  0.00  0.00    +0.000 C 
BRANCH  17  18
ATOM     18  C15 UNL     1       0.378  62.509  71.395  0.00  0.00    +0.000 C 
ATOM     19  C16 UNL     1       0.190  64.027  71.393  0.00  0.00    +0.000 C 
ATOM     20  C17 UNL     1      -0.950  61.820  71.740  0.00  0.00    +0.000 C 
ENDBRANCH  17  18
ENDBRANCH  15  17
ENDBRANCH  14  15
ENDBRANCH   5   9
BRANCH   4  21
ATOM     21  C5  UNL     1       1.293  60.790  74.315  0.00  0.00    +0.000 C 
ATOM     22  N1  UNL     1       1.817  61.110  75.456  0.00  0.00    +0.000 NA
BRANCH  22  23
ATOM     23  O1  UNL     1       2.601  60.073  75.983  0.00  0.00    +0.000 OA
ATOM     24  H   UNL     1       3.517  60.205  76.127  0.00  0.00    +0.000 HD
ENDBRANCH  22  23
ENDBRANCH   4  21
TORSDOF 6
ENDMDL
