MODEL 1
REMARK VINA RESULT:    -6.080      0.000      0.000
REMARK INTER + INTRA:          -9.501
REMARK INTER:                  -7.857
REMARK INTRA:                  -1.644
REMARK UNBOUND:                -1.644
REMARK  Name = laboratorio_evolutivo\Gen7_Mutante_2.pdb
REMARK  10 active torsions:
REMARK  status: ('A' for Active; 'I' for Inactive)
REMARK    1  A    between atoms: C1_1  and  C2_2
REMARK    2  A    between atoms: C2_2  and  C3_4
REMARK    3  A    between atoms: C5_6  and  C6_7
REMARK    4  A    between atoms: C8_10  and  C9_11
REMARK    5  A    between atoms: C12_14  and  C13_15
REMARK    6  A    between atoms: C14_16  and  C15_17
REMARK    7  A    between atoms: C15_17  and  C16_19
REMARK    8  A    between atoms: C16_19  and  C17_20
REMARK    9  A    between atoms: C17_20  and  C18_21
REMARK   10  A    between atoms: C17_20  and  C19_22
REMARK                            x       y       z     vdW  Elec       q    Type
REMARK                         _______ _______ _______ _____ _____    ______ ____
ROOT
ATOM      1  C9  UNL     1      16.762  -6.746   1.438  0.00  0.00    +0.000 C 
ATOM      2  C10 UNL     1      16.049  -7.564   0.341  0.00  0.00    +0.000 C 
ATOM      3  C11 UNL     1      14.669  -6.926   0.238  0.00  0.00    +0.000 C 
ATOM      4  C12 UNL     1      14.307  -6.679   1.700  0.00  0.00    +0.000 C 
ATOM      5  C13 UNL     1      13.095  -5.783   1.892  0.00  0.00    +0.000 C 
ATOM      6  C14 UNL     1      15.627  -6.233   2.363  0.00  0.00    +0.000 C 
ENDROOT
BRANCH   1  13
ATOM      7  C3  UNL     1      19.187  -6.987   2.258  0.00  0.00    +0.000 C 
ATOM      8  C4  UNL     1      20.153  -7.637   3.033  0.00  0.00    +0.000 C 
ATOM      9  C5  UNL     1      19.773  -8.735   3.786  0.00  0.00    +0.000 C 
ATOM     10  C6  UNL     1      20.777  -9.466   4.625  0.00  0.00    +0.000 C 
ATOM     11  N1  UNL     1      18.504  -9.187   3.800  0.00  0.00    +0.000 NA
ATOM     12  C7  UNL     1      17.590  -8.542   3.035  0.00  0.00    +0.000 C 
ATOM     13  C8  UNL     1      17.858  -7.446   2.219  0.00  0.00    +0.000 C 
BRANCH   7  15
ATOM     14  C1  UNL     1      20.226  -4.650   2.252  0.00  0.00    +0.000 C 
ATOM     15  C2  UNL     1      19.638  -5.805   1.485  0.00  0.00    +0.000 C 
ATOM     16  O1  UNL     1      19.549  -5.803   0.262  0.00  0.00    +0.000 OA
ENDBRANCH   7  15
ENDBRANCH   1  13
BRANCH   6  17
ATOM     17  C15 UNL     1      15.759  -4.740   2.679  0.00  0.00    +0.000 C 
ATOM     18  O2  UNL     1      15.221  -4.298   3.699  0.00  0.00    +0.000 OA
BRANCH  17  19
ATOM     19  C16 UNL     1      16.586  -3.844   1.765  0.00  0.00    +0.000 C 
BRANCH  19  20
ATOM     20  C17 UNL     1      15.825  -3.403   0.503  0.00  0.00    +0.000 C 
ATOM     21  C18 UNL     1      15.466  -1.915   0.554  0.00  0.00    +0.000 C 
ATOM     22  C19 UNL     1      16.667  -3.680  -0.746  0.00  0.00    +0.000 C 
ENDBRANCH  19  20
ENDBRANCH  17  19
ENDBRANCH   6  17
TORSDOF 5
ENDMDL
MODEL 2
REMARK VINA RESULT:    -6.045     21.586     24.232
REMARK INTER + INTRA:          -9.456
REMARK INTER:                  -7.787
REMARK INTRA:                  -1.669
REMARK UNBOUND:                -1.644
REMARK  Name = laboratorio_evolutivo\Gen7_Mutante_2.pdb
REMARK  10 active torsions:
REMARK  status: ('A' for Active; 'I' for Inactive)
REMARK    1  A    between atoms: C1_1  and  C2_2
REMARK    2  A    between atoms: C2_2  and  C3_4
REMARK    3  A    between atoms: C5_6  and  C6_7
REMARK    4  A    between atoms: C8_10  and  C9_11
REMARK    5  A    between atoms: C12_14  and  C13_15
REMARK    6  A    between atoms: C14_16  and  C15_17
REMARK    7  A    between atoms: C15_17  and  C16_19
REMARK    8  A    between atoms: C16_19  and  C17_20
REMARK    9  A    between atoms: C17_20  and  C18_21
REMARK   10  A    between atoms: C17_20  and  C19_22
REMARK                            x       y       z     vdW  Elec       q    Type
REMARK                         _______ _______ _______ _____ _____    ______ ____
ROOT
ATOM      1  C9  UNL     1       0.857  -0.800  18.642  0.00  0.00    +0.000 C 
ATOM      2  C10 UNL     1      -0.415  -0.234  17.977  0.00  0.00    +0.000 C 
ATOM      3  C11 UNL     1      -0.569  -1.057  16.704  0.00  0.00    +0.000 C 
ATOM      4  C12 UNL     1       0.868  -1.158  16.198  0.00  0.00    +0.000 C 
ATOM      5  C13 UNL     1       1.060  -2.176  15.086  0.00  0.00    +0.000 C 
ATOM      6  C14 UNL     1       1.723  -1.334  17.471  0.00  0.00    +0.000 C 
ENDROOT
BRANCH   1  13
ATOM      7  C3  UNL     1       1.902  -0.143  20.897  0.00  0.00    +0.000 C 
ATOM      8  C4  UNL     1       2.671   0.727  21.678  0.00  0.00    +0.000 C 
ATOM      9  C5  UNL     1       3.194   1.864  21.088  0.00  0.00    +0.000 C 
ATOM     10  C6  UNL     1       4.017   2.828  21.888  0.00  0.00    +0.000 C 
ATOM     11  N1  UNL     1       2.990   2.152  19.787  0.00  0.00    +0.000 NA
ATOM     12  C7  UNL     1       2.236   1.296  19.056  0.00  0.00    +0.000 C 
ATOM     13  C8  UNL     1       1.639   0.137  19.544  0.00  0.00    +0.000 C 
BRANCH   7  15
ATOM     14  C1  UNL     1       2.384  -2.370  22.060  0.00  0.00    +0.000 C 
ATOM     15  C2  UNL     1       1.382  -1.358  21.569  0.00  0.00    +0.000 C 
ATOM     16  O1  UNL     1       0.174  -1.498  21.733  0.00  0.00    +0.000 OA
ENDBRANCH   7  15
ENDBRANCH   1  13
BRANCH   6  17
ATOM     17  C15 UNL     1       2.264  -2.742  17.738  0.00  0.00    +0.000 C 
ATOM     18  O2  UNL     1       3.373  -3.048  17.290  0.00  0.00    +0.000 OA
BRANCH  17  19
ATOM     19  C16 UNL     1       1.453  -3.715  18.586  0.00  0.00    +0.000 C 
BRANCH  19  20
ATOM     20  C17 UNL     1       0.754  -4.804  17.754  0.00  0.00    +0.000 C 
ATOM     21  C18 UNL     1       0.977  -6.197  18.349  0.00  0.00    +0.000 C 
ATOM     22  C19 UNL     1      -0.749  -4.522  17.669  0.00  0.00    +0.000 C 
ENDBRANCH  19  20
ENDBRANCH  17  19
ENDBRANCH   6  17
TORSDOF 5
ENDMDL
MODEL 3
REMARK VINA RESULT:    -5.962     23.005     25.220
REMARK INTER + INTRA:          -9.349
REMARK INTER:                  -7.597
REMARK INTRA:                  -1.753
REMARK UNBOUND:                -1.644
REMARK  Name = laboratorio_evolutivo\Gen7_Mutante_2.pdb
REMARK  10 active torsions:
REMARK  status: ('A' for Active; 'I' for Inactive)
REMARK    1  A    between atoms: C1_1  and  C2_2
REMARK    2  A    between atoms: C2_2  and  C3_4
REMARK    3  A    between atoms: C5_6  and  C6_7
REMARK    4  A    between atoms: C8_10  and  C9_11
REMARK    5  A    between atoms: C12_14  and  C13_15
REMARK    6  A    between atoms: C14_16  and  C15_17
REMARK    7  A    between atoms: C15_17  and  C16_19
REMARK    8  A    between atoms: C16_19  and  C17_20
REMARK    9  A    between atoms: C17_20  and  C18_21
REMARK   10  A    between atoms: C17_20  and  C19_22
REMARK                            x       y       z     vdW  Elec       q    Type
REMARK                         _______ _______ _______ _____ _____    ______ ____
ROOT
ATOM      1  C9  UNL     1       1.208   0.065  21.126  0.00  0.00    +0.000 C 
ATOM      2  C10 UNL     1       1.738  -0.186  22.554  0.00  0.00    +0.000 C 
ATOM      3  C11 UNL     1       2.599   1.036  22.852  0.00  0.00    +0.000 C 
ATOM      4  C12 UNL     1       3.334   1.255  21.532  0.00  0.00    +0.000 C 
ATOM      5  C13 UNL     1       4.057   2.589  21.442  0.00  0.00    +0.000 C 
ATOM      6  C14 UNL     1       2.288   0.943  20.441  0.00  0.00    +0.000 C 
ENDROOT
BRANCH   1  13
ATOM      7  C3  UNL     1      -0.433  -1.397  19.794  0.00  0.00    +0.000 C 
ATOM      8  C4  UNL     1      -0.698  -2.511  18.989  0.00  0.00    +0.000 C 
ATOM      9  C5  UNL     1       0.345  -3.365  18.672  0.00  0.00    +0.000 C 
ATOM     10  C6  UNL     1       0.105  -4.575  17.820  0.00  0.00    +0.000 C 
ATOM     11  N1  UNL     1       1.602  -3.151  19.108  0.00  0.00    +0.000 NA
ATOM     12  C7  UNL     1       1.828  -2.068  19.890  0.00  0.00    +0.000 C 
ATOM     13  C8  UNL     1       0.858  -1.155  20.295  0.00  0.00    +0.000 C 
BRANCH   7  15
ATOM     14  C1  UNL     1      -1.791   0.682  19.181  0.00  0.00    +0.000 C 
ATOM     15  C2  UNL     1      -1.577  -0.502  20.088  0.00  0.00    +0.000 C 
ATOM     16  O1  UNL     1      -2.325  -0.752  21.027  0.00  0.00    +0.000 OA
ENDBRANCH   7  15
ENDBRANCH   1  13
BRANCH   6  17
ATOM     17  C15 UNL     1       1.687   2.149  19.712  0.00  0.00    +0.000 C 
ATOM     18  O2  UNL     1       0.998   2.949  20.352  0.00  0.00    +0.000 OA
BRANCH  17  19
ATOM     19  C16 UNL     1       1.989   2.364  18.233  0.00  0.00    +0.000 C 
BRANCH  19  20
ATOM     20  C17 UNL     1       1.083   1.537  17.306  0.00  0.00    +0.000 C 
ATOM     21  C18 UNL     1       0.665   2.337  16.068  0.00  0.00    +0.000 C 
ATOM     22  C19 UNL     1       1.803   0.259  16.866  0.00  0.00    +0.000 C 
ENDBRANCH  19  20
ENDBRANCH  17  19
ENDBRANCH   6  17
TORSDOF 5
ENDMDL
MODEL 4
REMARK VINA RESULT:    -5.755      2.406      5.718
REMARK INTER + INTRA:          -9.082
REMARK INTER:                  -7.359
REMARK INTRA:                  -1.723
REMARK UNBOUND:                -1.644
REMARK  Name = laboratorio_evolutivo\Gen7_Mutante_2.pdb
REMARK  10 active torsions:
REMARK  status: ('A' for Active; 'I' for Inactive)
REMARK    1  A    between atoms: C1_1  and  C2_2
REMARK    2  A    between atoms: C2_2  and  C3_4
REMARK    3  A    between atoms: C5_6  and  C6_7
REMARK    4  A    between atoms: C8_10  and  C9_11
REMARK    5  A    between atoms: C12_14  and  C13_15
REMARK    6  A    between atoms: C14_16  and  C15_17
REMARK    7  A    between atoms: C15_17  and  C16_19
REMARK    8  A    between atoms: C16_19  and  C17_20
REMARK    9  A    between atoms: C17_20  and  C18_21
REMARK   10  A    between atoms: C17_20  and  C19_22
REMARK                            x       y       z     vdW  Elec       q    Type
REMARK                         _______ _______ _______ _____ _____    ______ ____
ROOT
ATOM      1  C9  UNL     1      18.599  -5.544   1.286  0.00  0.00    +0.000 C 
ATOM      2  C10 UNL     1      19.838  -5.269   2.164  0.00  0.00    +0.000 C 
ATOM      3  C11 UNL     1      20.368  -6.656   2.506  0.00  0.00    +0.000 C 
ATOM      4  C12 UNL     1      19.090  -7.440   2.792  0.00  0.00    +0.000 C 
ATOM      5  C13 UNL     1      19.295  -8.943   2.882  0.00  0.00    +0.000 C 
ATOM      6  C14 UNL     1      18.072  -6.927   1.751  0.00  0.00    +0.000 C 
ENDROOT
BRANCH   1  13
ATOM      7  C3  UNL     1      16.910  -4.005   0.108  0.00  0.00    +0.000 C 
ATOM      8  C4  UNL     1      15.870  -3.070   0.159  0.00  0.00    +0.000 C 
ATOM      9  C5  UNL     1      15.416  -2.647   1.396  0.00  0.00    +0.000 C 
ATOM     10  C6  UNL     1      14.309  -1.641   1.498  0.00  0.00    +0.000 C 
ATOM     11  N1  UNL     1      15.940  -3.112   2.547  0.00  0.00    +0.000 NA
ATOM     12  C7  UNL     1      16.950  -4.012   2.468  0.00  0.00    +0.000 C 
ATOM     13  C8  UNL     1      17.506  -4.492   1.286  0.00  0.00    +0.000 C 
BRANCH   7  15
ATOM     14  C1  UNL     1      16.519  -5.489  -1.937  0.00  0.00    +0.000 C 
ATOM     15  C2  UNL     1      17.347  -4.442  -1.239  0.00  0.00    +0.000 C 
ATOM     16  O1  UNL     1      18.336  -3.935  -1.757  0.00  0.00    +0.000 OA
ENDBRANCH   7  15
ENDBRANCH   1  13
BRANCH   6  17
ATOM     17  C15 UNL     1      17.770  -7.864   0.577  0.00  0.00    +0.000 C 
ATOM     18  O2  UNL     1      18.581  -7.935  -0.351  0.00  0.00    +0.000 OA
BRANCH  17  19
ATOM     19  C16 UNL     1      16.510  -8.721   0.600  0.00  0.00    +0.000 C 
BRANCH  19  20
ATOM     20  C17 UNL     1      15.660  -8.510   1.865  0.00  0.00    +0.000 C 
ATOM     21  C18 UNL     1      14.313  -7.859   1.537  0.00  0.00    +0.000 C 
ATOM     22  C19 UNL     1      15.418  -9.849   2.568  0.00  0.00    +0.000 C 
ENDBRANCH  19  20
ENDBRANCH  17  19
ENDBRANCH   6  17
TORSDOF 5
ENDMDL
MODEL 5
REMARK VINA RESULT:    -5.750     23.453     25.581
REMARK INTER + INTRA:          -9.076
REMARK INTER:                  -7.736
REMARK INTRA:                  -1.339
REMARK UNBOUND:                -1.644
REMARK  Name = laboratorio_evolutivo\Gen7_Mutante_2.pdb
REMARK  10 active torsions:
REMARK  status: ('A' for Active; 'I' for Inactive)
REMARK    1  A    between atoms: C1_1  and  C2_2
REMARK    2  A    between atoms: C2_2  and  C3_4
REMARK    3  A    between atoms: C5_6  and  C6_7
REMARK    4  A    between atoms: C8_10  and  C9_11
REMARK    5  A    between atoms: C12_14  and  C13_15
REMARK    6  A    between atoms: C14_16  and  C15_17
REMARK    7  A    between atoms: C15_17  and  C16_19
REMARK    8  A    between atoms: C16_19  and  C17_20
REMARK    9  A    between atoms: C17_20  and  C18_21
REMARK   10  A    between atoms: C17_20  and  C19_22
REMARK                            x       y       z     vdW  Elec       q    Type
REMARK                         _______ _______ _______ _____ _____    ______ ____
ROOT
ATOM      1  C9  UNL     1       1.244  -0.283  19.646  0.00  0.00    +0.000 C 
ATOM      2  C10 UNL     1       1.805  -0.418  18.215  0.00  0.00    +0.000 C 
ATOM      3  C11 UNL     1       1.468  -1.849  17.816  0.00  0.00    +0.000 C 
ATOM      4  C12 UNL     1       1.773  -2.630  19.091  0.00  0.00    +0.000 C 
ATOM      5  C13 UNL     1       1.255  -4.059  19.079  0.00  0.00    +0.000 C 
ATOM      6  C14 UNL     1       1.295  -1.715  20.238  0.00  0.00    +0.000 C 
ENDROOT
BRANCH   1  13
ATOM      7  C3  UNL     1       1.799   2.121  20.370  0.00  0.00    +0.000 C 
ATOM      8  C4  UNL     1       2.390   3.020  21.265  0.00  0.00    +0.000 C 
ATOM      9  C5  UNL     1       3.074   2.516  22.358  0.00  0.00    +0.000 C 
ATOM     10  C6  UNL     1       3.730   3.442  23.338  0.00  0.00    +0.000 C 
ATOM     11  N1  UNL     1       3.179   1.192  22.588  0.00  0.00    +0.000 NA
ATOM     12  C7  UNL     1       2.602   0.345  21.702  0.00  0.00    +0.000 C 
ATOM     13  C8  UNL     1       1.912   0.731  20.556  0.00  0.00    +0.000 C 
BRANCH   7  15
ATOM     14  C1  UNL     1       1.869   3.258  18.080  0.00  0.00    +0.000 C 
ATOM     15  C2  UNL     1       1.061   2.708  19.226  0.00  0.00    +0.000 C 
ATOM     16  O1  UNL     1      -0.166   2.710  19.224  0.00  0.00    +0.000 OA
ENDBRANCH   7  15
ENDBRANCH   1  13
BRANCH   6  17
ATOM     17  C15 UNL     1      -0.016  -2.113  20.923  0.00  0.00    +0.000 C 
ATOM     18  O2  UNL     1       0.004  -3.008  21.774  0.00  0.00    +0.000 OA
BRANCH  17  19
ATOM     19  C16 UNL     1      -1.302  -1.369  20.583  0.00  0.00    +0.000 C 
BRANCH  19  20
ATOM     20  C17 UNL     1      -2.258  -2.189  19.699  0.00  0.00    +0.000 C 
ATOM     21  C18 UNL     1      -3.703  -2.096  20.196  0.00  0.00    +0.000 C 
ATOM     22  C19 UNL     1      -2.187  -1.700  18.249  0.00  0.00    +0.000 C 
ENDBRANCH  19  20
ENDBRANCH  17  19
ENDBRANCH   6  17
TORSDOF 5
ENDMDL
MODEL 6
REMARK VINA RESULT:    -5.749     21.718     24.350
REMARK INTER + INTRA:          -9.074
REMARK INTER:                  -7.309
REMARK INTRA:                  -1.765
REMARK UNBOUND:                -1.644
REMARK  Name = laboratorio_evolutivo\Gen7_Mutante_2.pdb
REMARK  10 active torsions:
REMARK  status: ('A' for Active; 'I' for Inactive)
REMARK    1  A    between atoms: C1_1  and  C2_2
REMARK    2  A    between atoms: C2_2  and  C3_4
REMARK    3  A    between atoms: C5_6  and  C6_7
REMARK    4  A    between atoms: C8_10  and  C9_11
REMARK    5  A    between atoms: C12_14  and  C13_15
REMARK    6  A    between atoms: C14_16  and  C15_17
REMARK    7  A    between atoms: C15_17  and  C16_19
REMARK    8  A    between atoms: C16_19  and  C17_20
REMARK    9  A    between atoms: C17_20  and  C18_21
REMARK   10  A    between atoms: C17_20  and  C19_22
REMARK                            x       y       z     vdW  Elec       q    Type
REMARK                         _______ _______ _______ _____ _____    ______ ____
ROOT
ATOM      1  C9  UNL     1       1.211  -2.067  20.429  0.00  0.00    +0.000 C 
ATOM      2  C10 UNL     1       2.024  -2.610  21.623  0.00  0.00    +0.000 C 
ATOM      3  C11 UNL     1       2.243  -1.391  22.510  0.00  0.00    +0.000 C 
ATOM      4  C12 UNL     1       2.559  -0.295  21.496  0.00  0.00    +0.000 C 
ATOM      5  C13 UNL     1       2.541   1.109  22.079  0.00  0.00    +0.000 C 
ATOM      6  C14 UNL     1       1.619  -0.577  20.304  0.00  0.00    +0.000 C 
ENDROOT
BRANCH   1  13
ATOM      7  C3  UNL     1       0.298  -2.907  18.177  0.00  0.00    +0.000 C 
ATOM      8  C4  UNL     1       0.484  -3.554  16.950  0.00  0.00    +0.000 C 
ATOM      9  C5  UNL     1       1.732  -4.075  16.656  0.00  0.00    +0.000 C 
ATOM     10  C6  UNL     1       1.975  -4.783  15.357  0.00  0.00    +0.000 C 
ATOM     11  N1  UNL     1       2.769  -3.971  17.510  0.00  0.00    +0.000 NA
ATOM     12  C7  UNL     1       2.559  -3.346  18.693  0.00  0.00    +0.000 C 
ATOM     13  C8  UNL     1       1.346  -2.805  19.109  0.00  0.00    +0.000 C 
BRANCH   7  15
ATOM     14  C1  UNL     1      -1.551  -1.269  17.512  0.00  0.00    +0.000 C 
ATOM     15  C2  UNL     1      -1.050  -2.348  18.437  0.00  0.00    +0.000 C 
ATOM     16  O1  UNL     1      -1.726  -2.783  19.363  0.00  0.00    +0.000 OA
ENDBRANCH   7  15
ENDBRANCH   1  13
BRANCH   6  17
ATOM     17  C15 UNL     1       0.410   0.352  20.158  0.00  0.00    +0.000 C 
ATOM     18  O2  UNL     1      -0.535   0.227  20.942  0.00  0.00    +0.000 OA
BRANCH  17  19
ATOM     19  C16 UNL     1       0.417   1.438  19.088  0.00  0.00    +0.000 C 
BRANCH  19  20
ATOM     20  C17 UNL     1       1.716   1.464  18.264  0.00  0.00    +0.000 C 
ATOM     21  C18 UNL     1       1.523   0.820  16.888  0.00  0.00    +0.000 C 
ATOM     22  C19 UNL     1       2.200   2.906  18.086  0.00  0.00    +0.000 C 
ENDBRANCH  19  20
ENDBRANCH  17  19
ENDBRANCH   6  17
TORSDOF 5
ENDMDL
MODEL 7
REMARK VINA RESULT:    -5.660     23.639     25.525
REMARK INTER + INTRA:          -8.958
REMARK INTER:                  -7.535
REMARK INTRA:                  -1.423
REMARK UNBOUND:                -1.644
REMARK  Name = laboratorio_evolutivo\Gen7_Mutante_2.pdb
REMARK  10 active torsions:
REMARK  status: ('A' for Active; 'I' for Inactive)
REMARK    1  A    between atoms: C1_1  and  C2_2
REMARK    2  A    between atoms: C2_2  and  C3_4
REMARK    3  A    between atoms: C5_6  and  C6_7
REMARK    4  A    between atoms: C8_10  and  C9_11
REMARK    5  A    between atoms: C12_14  and  C13_15
REMARK    6  A    between atoms: C14_16  and  C15_17
REMARK    7  A    between atoms: C15_17  and  C16_19
REMARK    8  A    between atoms: C16_19  and  C17_20
REMARK    9  A    between atoms: C17_20  and  C18_21
REMARK   10  A    between atoms: C17_20  and  C19_22
REMARK                            x       y       z     vdW  Elec       q    Type
REMARK                         _______ _______ _______ _____ _____    ______ ____
ROOT
ATOM      1  C9  UNL     1       1.227   0.075  20.995  0.00  0.00    +0.000 C 
ATOM      2  C10 UNL     1       1.530  -0.008  22.505  0.00  0.00    +0.000 C 
ATOM      3  C11 UNL     1       2.406   1.208  22.778  0.00  0.00    +0.000 C 
ATOM      4  C12 UNL     1       3.335   1.226  21.567  0.00  0.00    +0.000 C 
ATOM      5  C13 UNL     1       4.137   2.510  21.424  0.00  0.00    +0.000 C 
ATOM      6  C14 UNL     1       2.442   0.816  20.378  0.00  0.00    +0.000 C 
ENDROOT
BRANCH   1  13
ATOM      7  C3  UNL     1      -0.242  -1.447  19.533  0.00  0.00    +0.000 C 
ATOM      8  C4  UNL     1      -0.448  -2.648  18.846  0.00  0.00    +0.000 C 
ATOM      9  C5  UNL     1       0.541  -3.617  18.889  0.00  0.00    +0.000 C 
ATOM     10  C6  UNL     1       0.360  -4.922  18.173  0.00  0.00    +0.000 C 
ATOM     11  N1  UNL     1       1.692  -3.433  19.564  0.00  0.00    +0.000 NA
ATOM     12  C7  UNL     1       1.862  -2.263  20.226  0.00  0.00    +0.000 C 
ATOM     13  C8  UNL     1       0.932  -1.229  20.276  0.00  0.00    +0.000 C 
BRANCH   7  15
ATOM     14  C1  UNL     1      -2.329  -0.382  20.557  0.00  0.00    +0.000 C 
ATOM     15  C2  UNL     1      -1.320  -0.434  19.441  0.00  0.00    +0.000 C 
ATOM     16  O1  UNL     1      -1.351   0.343  18.492  0.00  0.00    +0.000 OA
ENDBRANCH   7  15
ENDBRANCH   1  13
BRANCH   6  17
ATOM     17  C15 UNL     1       2.021   1.938  19.424  0.00  0.00    +0.000 C 
ATOM     18  O2  UNL     1       2.685   2.129  18.400  0.00  0.00    +0.000 OA
BRANCH  17  19
ATOM     19  C16 UNL     1       0.772   2.758  19.727  0.00  0.00    +0.000 C 
BRANCH  19  20
ATOM     20  C17 UNL     1       1.086   4.116  20.379  0.00  0.00    +0.000 C 
ATOM     21  C18 UNL     1       2.036   4.950  19.514  0.00  0.00    +0.000 C 
ATOM     22  C19 UNL     1      -0.208   4.901  20.613  0.00  0.00    +0.000 C 
ENDBRANCH  19  20
ENDBRANCH  17  19
ENDBRANCH   6  17
TORSDOF 5
ENDMDL
MODEL 8
REMARK VINA RESULT:    -5.487     22.578     24.786
REMARK INTER + INTRA:          -8.735
REMARK INTER:                  -6.973
REMARK INTRA:                  -1.762
REMARK UNBOUND:                -1.644
REMARK  Name = laboratorio_evolutivo\Gen7_Mutante_2.pdb
REMARK  10 active torsions:
REMARK  status: ('A' for Active; 'I' for Inactive)
REMARK    1  A    between atoms: C1_1  and  C2_2
REMARK    2  A    between atoms: C2_2  and  C3_4
REMARK    3  A    between atoms: C5_6  and  C6_7
REMARK    4  A    between atoms: C8_10  and  C9_11
REMARK    5  A    between atoms: C12_14  and  C13_15
REMARK    6  A    between atoms: C14_16  and  C15_17
REMARK    7  A    between atoms: C15_17  and  C16_19
REMARK    8  A    between atoms: C16_19  and  C17_20
REMARK    9  A    between atoms: C17_20  and  C18_21
REMARK   10  A    between atoms: C17_20  and  C19_22
REMARK                            x       y       z     vdW  Elec       q    Type
REMARK                         _______ _______ _______ _____ _____    ______ ____
ROOT
ATOM      1  C9  UNL     1       1.246   0.717  18.376  0.00  0.00    +0.000 C 
ATOM      2  C10 UNL     1       2.245   1.687  17.710  0.00  0.00    +0.000 C 
ATOM      3  C11 UNL     1       1.371   2.812  17.171  0.00  0.00    +0.000 C 
ATOM      4  C12 UNL     1       0.173   2.057  16.600  0.00  0.00    +0.000 C 
ATOM      5  C13 UNL     1      -1.007   2.948  16.248  0.00  0.00    +0.000 C 
ATOM      6  C14 UNL     1      -0.083   0.909  17.599  0.00  0.00    +0.000 C 
ENDROOT
BRANCH   1  13
ATOM      7  C3  UNL     1       1.605  -1.488  19.648  0.00  0.00    +0.000 C 
ATOM      8  C4  UNL     1       1.940  -2.847  19.663  0.00  0.00    +0.000 C 
ATOM      9  C5  UNL     1       2.297  -3.457  18.473  0.00  0.00    +0.000 C 
ATOM     10  C6  UNL     1       2.670  -4.909  18.444  0.00  0.00    +0.000 C 
ATOM     11  N1  UNL     1       2.323  -2.786  17.305  0.00  0.00    +0.000 NA
ATOM     12  C7  UNL     1       2.000  -1.470  17.321  0.00  0.00    +0.000 C 
ATOM     13  C8  UNL     1       1.651  -0.744  18.455  0.00  0.00    +0.000 C 
BRANCH   7  15
ATOM     14  C1  UNL     1       2.276  -0.172  21.735  0.00  0.00    +0.000 C 
ATOM     15  C2  UNL     1       1.211  -0.884  20.943  0.00  0.00    +0.000 C 
ATOM     16  O1  UNL     1       0.047  -0.952  21.322  0.00  0.00    +0.000 OA
ENDBRANCH   7  15
ENDBRANCH   1  13
BRANCH   6  17
ATOM     17  C15 UNL     1      -1.287   1.075  18.532  0.00  0.00    +0.000 C 
ATOM     18  O2  UNL     1      -2.352   0.528  18.231  0.00  0.00    +0.000 OA
BRANCH  17  19
ATOM     19  C16 UNL     1      -1.135   1.862  19.828  0.00  0.00    +0.000 C 
BRANCH  19  20
ATOM     20  C17 UNL     1      -1.573   3.331  19.695  0.00  0.00    +0.000 C 
ATOM     21  C18 UNL     1      -2.761   3.649  20.609  0.00  0.00    +0.000 C 
ATOM     22  C19 UNL     1      -0.407   4.263  20.037  0.00  0.00    +0.000 C 
ENDBRANCH  19  20
ENDBRANCH  17  19
ENDBRANCH   6  17
TORSDOF 5
ENDMDL
MODEL 9
REMARK VINA RESULT:    -5.455      2.532      5.596
REMARK INTER + INTRA:          -8.693
REMARK INTER:                  -7.033
REMARK INTRA:                  -1.660
REMARK UNBOUND:                -1.644
REMARK  Name = laboratorio_evolutivo\Gen7_Mutante_2.pdb
REMARK  10 active torsions:
REMARK  status: ('A' for Active; 'I' for Inactive)
REMARK    1  A    between atoms: C1_1  and  C2_2
REMARK    2  A    between atoms: C2_2  and  C3_4
REMARK    3  A    between atoms: C5_6  and  C6_7
REMARK    4  A    between atoms: C8_10  and  C9_11
REMARK    5  A    between atoms: C12_14  and  C13_15
REMARK    6  A    between atoms: C14_16  and  C15_17
REMARK    7  A    between atoms: C15_17  and  C16_19
REMARK    8  A    between atoms: C16_19  and  C17_20
REMARK    9  A    between atoms: C17_20  and  C18_21
REMARK   10  A    between atoms: C17_20  and  C19_22
REMARK                            x       y       z     vdW  Elec       q    Type
REMARK                         _______ _______ _______ _____ _____    ______ ____
ROOT
ATOM      1  C9  UNL     1      16.342  -4.970   1.707  0.00  0.00    +0.000 C 
ATOM      2  C10 UNL     1      17.518  -4.101   2.199  0.00  0.00    +0.000 C 
ATOM      3  C11 UNL     1      18.759  -4.850   1.726  0.00  0.00    +0.000 C 
ATOM      4  C12 UNL     1      18.398  -6.305   2.013  0.00  0.00    +0.000 C 
ATOM      5  C13 UNL     1      19.340  -7.312   1.374  0.00  0.00    +0.000 C 
ATOM      6  C14 UNL     1      16.900  -6.417   1.659  0.00  0.00    +0.000 C 
ENDROOT
BRANCH   1  13
ATOM      7  C3  UNL     1      14.034  -3.954   2.208  0.00  0.00    +0.000 C 
ATOM      8  C4  UNL     1      12.834  -3.948   2.929  0.00  0.00    +0.000 C 
ATOM      9  C5  UNL     1      12.649  -4.897   3.919  0.00  0.00    +0.000 C 
ATOM     10  C6  UNL     1      11.382  -4.923   4.721  0.00  0.00    +0.000 C 
ATOM     11  N1  UNL     1      13.582  -5.827   4.202  0.00  0.00    +0.000 NA
ATOM     12  C7  UNL     1      14.737  -5.806   3.493  0.00  0.00    +0.000 C 
ATOM     13  C8  UNL     1      15.047  -4.888   2.494  0.00  0.00    +0.000 C 
BRANCH   7  15
ATOM     14  C1  UNL     1      14.761  -1.597   1.532  0.00  0.00    +0.000 C 
ATOM     15  C2  UNL     1      14.178  -2.932   1.145  0.00  0.00    +0.000 C 
ATOM     16  O1  UNL     1      13.852  -3.196  -0.007  0.00  0.00    +0.000 OA
ENDBRANCH   7  15
ENDBRANCH   1  13
BRANCH   6  17
ATOM     17  C15 UNL     1      16.562  -7.131   0.347  0.00  0.00    +0.000 C 
ATOM     18  O2  UNL     1      16.288  -8.335   0.377  0.00  0.00    +0.000 OA
BRANCH  17  19
ATOM     19  C16 UNL     1      16.521  -6.339  -0.955  0.00  0.00    +0.000 C 
BRANCH  19  20
ATOM     20  C17 UNL     1      17.875  -6.311  -1.687  0.00  0.00    +0.000 C 
ATOM     21  C18 UNL     1      17.885  -7.261  -2.888  0.00  0.00    +0.000 C 
ATOM     22  C19 UNL     1      18.189  -4.889  -2.162  0.00  0.00    +0.000 C 
ENDBRANCH  19  20
ENDBRANCH  17  19
ENDBRANCH   6  17
TORSDOF 5
ENDMDL
