MODEL 1
REMARK VINA RESULT:    -5.929      0.000      0.000
REMARK INTER + INTRA:          -9.031
REMARK INTER:                  -7.835
REMARK INTRA:                  -1.195
REMARK UNBOUND:                -1.195
REMARK  Name = laboratorio_evolutivo\Gen7_Mutante_8.pdb
REMARK  11 active torsions:
REMARK  status: ('A' for Active; 'I' for Inactive)
REMARK    1  A    between atoms: C1_1  and  C2_2
REMARK    2  A    between atoms: C4_4  and  C5_5
REMARK    3  A    between atoms: N1_6  and  O1_7
REMARK    4  A    between atoms: C6_8  and  C7_9
REMARK    5  A    between atoms: C10_12  and  C11_13
REMARK    6  A    between atoms: C12_14  and  C13_15
REMARK    7  A    between atoms: C13_15  and  C14_17
REMARK    8  A    between atoms: C14_17  and  C15_18
REMARK    9  A    between atoms: C15_18  and  C16_19
REMARK   10  A    between atoms: C15_18  and  C17_20
REMARK   11  A    between atoms: C18_21  and  C19_22
REMARK                            x       y       z     vdW  Elec       q    Type
REMARK                         _______ _______ _______ _____ _____    ______ ____
ROOT
ATOM      1  C1  UNL     1      -2.201  -0.540  15.009  0.00  0.00    +0.000 C 
ATOM      2  C2  UNL     1      -1.493  -0.452  16.327  0.00  0.00    +0.000 C 
ATOM      3  C3  UNL     1      -2.187  -0.630  17.503  0.00  0.00    +0.000 C 
ATOM      4  C4  UNL     1      -1.493  -0.558  18.716  0.00  0.00    +0.000 C 
ATOM      5  C6  UNL     1      -0.102  -0.331  18.758  0.00  0.00    +0.000 C 
ATOM      6  C18 UNL     1       0.495  -0.105  17.499  0.00  0.00    +0.000 C 
ATOM      7  C19 UNL     1       1.932   0.308  17.333  0.00  0.00    +0.000 C 
ATOM      8  N2  UNL     1      -0.177  -0.184  16.320  0.00  0.00    +0.000 NA
ENDROOT
BRANCH   5   9
ATOM      9  C7  UNL     1       0.764  -0.338  20.010  0.00  0.00    +0.000 C 
ATOM     10  C8  UNL     1       0.220   0.059  21.389  0.00  0.00    +0.000 C 
ATOM     11  C9  UNL     1       1.285  -0.381  22.396  0.00  0.00    +0.000 C 
ATOM     12  C10 UNL     1       2.201  -1.363  21.651  0.00  0.00    +0.000 C 
ATOM     13  C11 UNL     1       2.603  -2.559  22.500  0.00  0.00    +0.000 C 
ATOM     14  C12 UNL     1       1.492  -1.676  20.317  0.00  0.00    +0.000 C 
BRANCH  14  15
ATOM     15  C13 UNL     1       0.572  -2.895  20.403  0.00  0.00    +0.000 C 
ATOM     16  O2  UNL     1      -0.183  -3.085  21.354  0.00  0.00    +0.000 OA
BRANCH  15  17
ATOM     17  C14 UNL     1       0.675  -3.926  19.290  0.00  0.00    +0.000 C 
BRANCH  17  18
ATOM     18  C15 UNL     1       1.739  -3.586  18.239  0.00  0.00    +0.000 C 
ATOM     19  C16 UNL     1       2.960  -4.487  18.437  0.00  0.00    +0.000 C 
ATOM     20  C17 UNL     1       1.203  -3.743  16.810  0.00  0.00    +0.000 C 
ENDBRANCH  17  18
ENDBRANCH  15  17
ENDBRANCH  14  15
ENDBRANCH   5   9
BRANCH   4  21
ATOM     21  C5  UNL     1      -2.358  -0.560  19.909  0.00  0.00    +0.000 C 
ATOM     22  N1  UNL     1      -3.054  -1.542  20.391  0.00  0.00    +0.000 NA
BRANCH  22  23
ATOM     23  O1  UNL     1      -2.847  -2.731  19.677  0.00  0.00    +0.000 OA
ATOM     24  H   UNL     1      -3.363  -2.917  18.917  0.00  0.00    +0.000 HD
ENDBRANCH  22  23
ENDBRANCH   4  21
TORSDOF 6
ENDMDL
MODEL 2
REMARK VINA RESULT:    -5.418     22.474     24.851
REMARK INTER + INTRA:          -8.356
REMARK INTER:                  -7.346
REMARK INTRA:                  -1.010
REMARK UNBOUND:                -1.195
REMARK  Name = laboratorio_evolutivo\Gen7_Mutante_8.pdb
REMARK  11 active torsions:
REMARK  status: ('A' for Active; 'I' for Inactive)
REMARK    1  A    between atoms: C1_1  and  C2_2
REMARK    2  A    between atoms: C4_4  and  C5_5
REMARK    3  A    between atoms: N1_6  and  O1_7
REMARK    4  A    between atoms: C6_8  and  C7_9
REMARK    5  A    between atoms: C10_12  and  C11_13
REMARK    6  A    between atoms: C12_14  and  C13_15
REMARK    7  A    between atoms: C13_15  and  C14_17
REMARK    8  A    between atoms: C14_17  and  C15_18
REMARK    9  A    between atoms: C15_18  and  C16_19
REMARK   10  A    between atoms: C15_18  and  C17_20
REMARK   11  A    between atoms: C18_21  and  C19_22
REMARK                            x       y       z     vdW  Elec       q    Type
REMARK                         _______ _______ _______ _____ _____    ______ ____
ROOT
ATOM      1  C1  UNL     1      18.040  -7.708  -3.109  0.00  0.00    +0.000 C 
ATOM      2  C2  UNL     1      17.536  -7.119  -1.827  0.00  0.00    +0.000 C 
ATOM      3  C3  UNL     1      16.766  -5.978  -1.840  0.00  0.00    +0.000 C 
ATOM      4  C4  UNL     1      16.298  -5.463  -0.626  0.00  0.00    +0.000 C 
ATOM      5  C6  UNL     1      16.579  -6.097   0.601  0.00  0.00    +0.000 C 
ATOM      6  C18 UNL     1      17.423  -7.223   0.502  0.00  0.00    +0.000 C 
ATOM      7  C19 UNL     1      17.969  -7.950   1.701  0.00  0.00    +0.000 C 
ATOM      8  N2  UNL     1      17.870  -7.729  -0.678  0.00  0.00    +0.000 NA
ENDROOT
BRANCH   5   9
ATOM      9  C7  UNL     1      16.035  -5.683   1.962  0.00  0.00    +0.000 C 
ATOM     10  C8  UNL     1      15.791  -4.215   2.339  0.00  0.00    +0.000 C 
ATOM     11  C9  UNL     1      14.966  -4.250   3.627  0.00  0.00    +0.000 C 
ATOM     12  C10 UNL     1      14.410  -5.677   3.741  0.00  0.00    +0.000 C 
ATOM     13  C11 UNL     1      12.967  -5.714   4.219  0.00  0.00    +0.000 C 
ATOM     14  C12 UNL     1      14.701  -6.356   2.388  0.00  0.00    +0.000 C 
BRANCH  14  15
ATOM     15  C13 UNL     1      13.559  -6.196   1.382  0.00  0.00    +0.000 C 
ATOM     16  O2  UNL     1      13.002  -5.118   1.184  0.00  0.00    +0.000 OA
BRANCH  15  17
ATOM     17  C14 UNL     1      13.072  -7.449   0.674  0.00  0.00    +0.000 C 
BRANCH  17  18
ATOM     18  C15 UNL     1      14.028  -8.641   0.814  0.00  0.00    +0.000 C 
ATOM     19  C16 UNL     1      13.324  -9.777   1.557  0.00  0.00    +0.000 C 
ATOM     20  C17 UNL     1      14.525  -9.140  -0.550  0.00  0.00    +0.000 C 
ENDBRANCH  17  18
ENDBRANCH  15  17
ENDBRANCH  14  15
ENDBRANCH   5   9
BRANCH   4  21
ATOM     21  C5  UNL     1      15.662  -4.138  -0.736  0.00  0.00    +0.000 C 
ATOM     22  N1  UNL     1      16.235  -2.976  -0.765  0.00  0.00    +0.000 NA
BRANCH  22  23
ATOM     23  O1  UNL     1      17.633  -3.080  -0.760  0.00  0.00    +0.000 OA
ATOM     24  H   UNL     1      18.045  -3.832  -0.385  0.00  0.00    +0.000 HD
ENDBRANCH  22  23
ENDBRANCH   4  21
TORSDOF 6
ENDMDL
MODEL 3
REMARK VINA RESULT:    -5.416     22.055     24.505
REMARK INTER + INTRA:          -8.353
REMARK INTER:                  -7.458
REMARK INTRA:                  -0.894
REMARK UNBOUND:                -1.195
REMARK  Name = laboratorio_evolutivo\Gen7_Mutante_8.pdb
REMARK  11 active torsions:
REMARK  status: ('A' for Active; 'I' for Inactive)
REMARK    1  A    between atoms: C1_1  and  C2_2
REMARK    2  A    between atoms: C4_4  and  C5_5
REMARK    3  A    between atoms: N1_6  and  O1_7
REMARK    4  A    between atoms: C6_8  and  C7_9
REMARK    5  A    between atoms: C10_12  and  C11_13
REMARK    6  A    between atoms: C12_14  and  C13_15
REMARK    7  A    between atoms: C13_15  and  C14_17
REMARK    8  A    between atoms: C14_17  and  C15_18
REMARK    9  A    between atoms: C15_18  and  C16_19
REMARK   10  A    between atoms: C15_18  and  C17_20
REMARK   11  A    between atoms: C18_21  and  C19_22
REMARK                            x       y       z     vdW  Elec       q    Type
REMARK                         _______ _______ _______ _____ _____    ______ ____
ROOT
ATOM      1  C1  UNL     1      12.249  -5.073   4.368  0.00  0.00    +0.000 C 
ATOM      2  C2  UNL     1      13.562  -5.233   3.664  0.00  0.00    +0.000 C 
ATOM      3  C3  UNL     1      13.919  -6.448   3.125  0.00  0.00    +0.000 C 
ATOM      4  C4  UNL     1      15.146  -6.560   2.460  0.00  0.00    +0.000 C 
ATOM      5  C6  UNL     1      16.008  -5.454   2.312  0.00  0.00    +0.000 C 
ATOM      6  C18 UNL     1      15.569  -4.276   2.953  0.00  0.00    +0.000 C 
ATOM      7  C19 UNL     1      16.408  -3.031   3.049  0.00  0.00    +0.000 C 
ATOM      8  N2  UNL     1      14.373  -4.165   3.591  0.00  0.00    +0.000 NA
ENDROOT
BRANCH   5   9
ATOM      9  C7  UNL     1      17.309  -5.439   1.521  0.00  0.00    +0.000 C 
ATOM     10  C8  UNL     1      18.117  -6.714   1.242  0.00  0.00    +0.000 C 
ATOM     11  C9  UNL     1      19.147  -6.327   0.178  0.00  0.00    +0.000 C 
ATOM     12  C10 UNL     1      18.664  -4.998  -0.422  0.00  0.00    +0.000 C 
ATOM     13  C11 UNL     1      18.837  -4.932  -1.932  0.00  0.00    +0.000 C 
ATOM     14  C12 UNL     1      17.234  -4.784   0.114  0.00  0.00    +0.000 C 
BRANCH  14  15
ATOM     15  C13 UNL     1      16.160  -5.370  -0.804  0.00  0.00    +0.000 C 
ATOM     16  O2  UNL     1      16.099  -6.570  -1.065  0.00  0.00    +0.000 OA
BRANCH  15  17
ATOM     17  C14 UNL     1      15.192  -4.396  -1.457  0.00  0.00    +0.000 C 
BRANCH  17  18
ATOM     18  C15 UNL     1      14.173  -3.799  -0.478  0.00  0.00    +0.000 C 
ATOM     19  C16 UNL     1      13.523  -2.564  -1.104  0.00  0.00    +0.000 C 
ATOM     20  C17 UNL     1      13.091  -4.816  -0.088  0.00  0.00    +0.000 C 
ENDBRANCH  17  18
ENDBRANCH  15  17
ENDBRANCH  14  15
ENDBRANCH   5   9
BRANCH   4  21
ATOM     21  C5  UNL     1      15.517  -7.941   2.103  0.00  0.00    +0.000 C 
ATOM     22  N1  UNL     1      15.963  -8.875   2.883  0.00  0.00    +0.000 NA
BRANCH  22  23
ATOM     23  O1  UNL     1      15.999  -8.467   4.224  0.00  0.00    +0.000 OA
ATOM     24  H   UNL     1      16.289  -9.062   4.887  0.00  0.00    +0.000 HD
ENDBRANCH  22  23
ENDBRANCH   4  21
TORSDOF 6
ENDMDL
MODEL 4
REMARK VINA RESULT:    -5.341      2.106      5.404
REMARK INTER + INTRA:          -8.253
REMARK INTER:                  -6.982
REMARK INTRA:                  -1.271
REMARK UNBOUND:                -1.195
REMARK  Name = laboratorio_evolutivo\Gen7_Mutante_8.pdb
REMARK  11 active torsions:
REMARK  status: ('A' for Active; 'I' for Inactive)
REMARK    1  A    between atoms: C1_1  and  C2_2
REMARK    2  A    between atoms: C4_4  and  C5_5
REMARK    3  A    between atoms: N1_6  and  O1_7
REMARK    4  A    between atoms: C6_8  and  C7_9
REMARK    5  A    between atoms: C10_12  and  C11_13
REMARK    6  A    between atoms: C12_14  and  C13_15
REMARK    7  A    between atoms: C13_15  and  C14_17
REMARK    8  A    between atoms: C14_17  and  C15_18
REMARK    9  A    between atoms: C15_18  and  C16_19
REMARK   10  A    between atoms: C15_18  and  C17_20
REMARK   11  A    between atoms: C18_21  and  C19_22
REMARK                            x       y       z     vdW  Elec       q    Type
REMARK                         _______ _______ _______ _____ _____    ______ ____
ROOT
ATOM      1  C1  UNL     1       2.897   1.508  22.871  0.00  0.00    +0.000 C 
ATOM      2  C2  UNL     1       2.441   0.768  21.650  0.00  0.00    +0.000 C 
ATOM      3  C3  UNL     1       1.952  -0.515  21.755  0.00  0.00    +0.000 C 
ATOM      4  C4  UNL     1       1.520  -1.171  20.597  0.00  0.00    +0.000 C 
ATOM      5  C6  UNL     1       1.553  -0.542  19.336  0.00  0.00    +0.000 C 
ATOM      6  C18 UNL     1       2.127   0.748  19.337  0.00  0.00    +0.000 C 
ATOM      7  C19 UNL     1       2.400   1.527  18.080  0.00  0.00    +0.000 C 
ATOM      8  N2  UNL     1       2.539   1.389  20.463  0.00  0.00    +0.000 NA
ENDROOT
BRANCH   5   9
ATOM      9  C7  UNL     1       1.013  -1.123  18.037  0.00  0.00    +0.000 C 
ATOM     10  C8  UNL     1       0.858  -2.633  17.812  0.00  0.00    +0.000 C 
ATOM     11  C9  UNL     1       0.009  -2.779  16.547  0.00  0.00    +0.000 C 
ATOM     12  C10 UNL     1      -0.640  -1.408  16.307  0.00  0.00    +0.000 C 
ATOM     13  C11 UNL     1      -2.091  -1.510  15.862  0.00  0.00    +0.000 C 
ATOM     14  C12 UNL     1      -0.369  -0.581  17.579  0.00  0.00    +0.000 C 
BRANCH  14  15
ATOM     15  C13 UNL     1      -1.480  -0.711  18.623  0.00  0.00    +0.000 C 
ATOM     16  O2  UNL     1      -1.891  -1.801  19.015  0.00  0.00    +0.000 OA
BRANCH  15  17
ATOM     17  C14 UNL     1      -2.126   0.572  19.119  0.00  0.00    +0.000 C 
BRANCH  17  18
ATOM     18  C15 UNL     1      -1.395   1.841  18.661  0.00  0.00    +0.000 C 
ATOM     19  C16 UNL     1      -2.299   2.644  17.724  0.00  0.00    +0.000 C 
ATOM     20  C17 UNL     1      -0.967   2.715  19.848  0.00  0.00    +0.000 C 
ENDBRANCH  17  18
ENDBRANCH  15  17
ENDBRANCH  14  15
ENDBRANCH   5   9
BRANCH   4  21
ATOM     21  C5  UNL     1       1.209  -2.599  20.791  0.00  0.00    +0.000 C 
ATOM     22  N1  UNL     1       0.154  -3.120  21.335  0.00  0.00    +0.000 NA
BRANCH  22  23
ATOM     23  O1  UNL     1      -0.790  -2.146  21.689  0.00  0.00    +0.000 OA
ATOM     24  H   UNL     1      -0.559  -1.469  22.294  0.00  0.00    +0.000 HD
ENDBRANCH  22  23
ENDBRANCH   4  21
TORSDOF 6
ENDMDL
MODEL 5
REMARK VINA RESULT:    -5.091     12.424     14.533
REMARK INTER + INTRA:          -7.924
REMARK INTER:                  -7.393
REMARK INTRA:                  -0.531
REMARK UNBOUND:                -1.195
REMARK  Name = laboratorio_evolutivo\Gen7_Mutante_8.pdb
REMARK  11 active torsions:
REMARK  status: ('A' for Active; 'I' for Inactive)
REMARK    1  A    between atoms: C1_1  and  C2_2
REMARK    2  A    between atoms: C4_4  and  C5_5
REMARK    3  A    between atoms: N1_6  and  O1_7
REMARK    4  A    between atoms: C6_8  and  C7_9
REMARK    5  A    between atoms: C10_12  and  C11_13
REMARK    6  A    between atoms: C12_14  and  C13_15
REMARK    7  A    between atoms: C13_15  and  C14_17
REMARK    8  A    between atoms: C14_17  and  C15_18
REMARK    9  A    between atoms: C15_18  and  C16_19
REMARK   10  A    between atoms: C15_18  and  C17_20
REMARK   11  A    between atoms: C18_21  and  C19_22
REMARK                            x       y       z     vdW  Elec       q    Type
REMARK                         _______ _______ _______ _____ _____    ______ ____
ROOT
ATOM      1  C1  UNL     1      -2.217 -10.504  19.930  0.00  0.00    +0.000 C 
ATOM      2  C2  UNL     1      -3.219 -11.606  20.096  0.00  0.00    +0.000 C 
ATOM      3  C3  UNL     1      -4.144 -11.860  19.109  0.00  0.00    +0.000 C 
ATOM      4  C4  UNL     1      -5.056 -12.907  19.289  0.00  0.00    +0.000 C 
ATOM      5  C6  UNL     1      -5.032 -13.716  20.443  0.00  0.00    +0.000 C 
ATOM      6  C18 UNL     1      -4.083 -13.329  21.413  0.00  0.00    +0.000 C 
ATOM      7  C19 UNL     1      -3.997 -13.959  22.777  0.00  0.00    +0.000 C 
ATOM      8  N2  UNL     1      -3.191 -12.318  21.235  0.00  0.00    +0.000 NA
ENDROOT
BRANCH   5   9
ATOM      9  C7  UNL     1      -5.904 -14.939  20.691  0.00  0.00    +0.000 C 
ATOM     10  C8  UNL     1      -5.585 -15.969  21.783  0.00  0.00    +0.000 C 
ATOM     11  C9  UNL     1      -6.839 -16.837  21.913  0.00  0.00    +0.000 C 
ATOM     12  C10 UNL     1      -7.970 -16.063  21.218  0.00  0.00    +0.000 C 
ATOM     13  C11 UNL     1      -9.286 -16.132  21.976  0.00  0.00    +0.000 C 
ATOM     14  C12 UNL     1      -7.411 -14.653  20.941  0.00  0.00    +0.000 C 
BRANCH  14  15
ATOM     15  C13 UNL     1      -7.691 -13.667  22.076  0.00  0.00    +0.000 C 
ATOM     16  O2  UNL     1      -7.341 -13.880  23.235  0.00  0.00    +0.000 OA
BRANCH  15  17
ATOM     17  C14 UNL     1      -8.497 -12.423  21.737  0.00  0.00    +0.000 C 
BRANCH  17  18
ATOM     18  C15 UNL     1      -9.212 -12.509  20.383  0.00  0.00    +0.000 C 
ATOM     19  C16 UNL     1     -10.681 -12.872  20.601  0.00  0.00    +0.000 C 
ATOM     20  C17 UNL     1      -9.111 -11.193  19.599  0.00  0.00    +0.000 C 
ENDBRANCH  17  18
ENDBRANCH  15  17
ENDBRANCH  14  15
ENDBRANCH   5   9
BRANCH   4  21
ATOM     21  C5  UNL     1      -6.123 -12.961  18.273  0.00  0.00    +0.000 C 
ATOM     22  N1  UNL     1      -6.205 -13.741  17.241  0.00  0.00    +0.000 NA
BRANCH  22  23
ATOM     23  O1  UNL     1      -5.151 -14.665  17.197  0.00  0.00    +0.000 OA
ATOM     24  H   UNL     1      -5.294 -15.521  16.845  0.00  0.00    +0.000 HD
ENDBRANCH  22  23
ENDBRANCH   4  21
TORSDOF 6
ENDMDL
MODEL 6
REMARK VINA RESULT:    -5.027     21.528     23.998
REMARK INTER + INTRA:          -7.839
REMARK INTER:                  -6.576
REMARK INTRA:                  -1.263
REMARK UNBOUND:                -1.195
REMARK  Name = laboratorio_evolutivo\Gen7_Mutante_8.pdb
REMARK  11 active torsions:
REMARK  status: ('A' for Active; 'I' for Inactive)
REMARK    1  A    between atoms: C1_1  and  C2_2
REMARK    2  A    between atoms: C4_4  and  C5_5
REMARK    3  A    between atoms: N1_6  and  O1_7
REMARK    4  A    between atoms: C6_8  and  C7_9
REMARK    5  A    between atoms: C10_12  and  C11_13
REMARK    6  A    between atoms: C12_14  and  C13_15
REMARK    7  A    between atoms: C13_15  and  C14_17
REMARK    8  A    between atoms: C14_17  and  C15_18
REMARK    9  A    between atoms: C15_18  and  C16_19
REMARK   10  A    between atoms: C15_18  and  C17_20
REMARK   11  A    between atoms: C18_21  and  C19_22
REMARK                            x       y       z     vdW  Elec       q    Type
REMARK                         _______ _______ _______ _____ _____    ______ ____
ROOT
ATOM      1  C1  UNL     1      11.523  -5.225   4.508  0.00  0.00    +0.000 C 
ATOM      2  C2  UNL     1      12.379  -5.176   3.280  0.00  0.00    +0.000 C 
ATOM      3  C3  UNL     1      13.209  -4.102   3.052  0.00  0.00    +0.000 C 
ATOM      4  C4  UNL     1      14.008  -4.095   1.903  0.00  0.00    +0.000 C 
ATOM      5  C6  UNL     1      13.998  -5.170   0.991  0.00  0.00    +0.000 C 
ATOM      6  C18 UNL     1      13.068  -6.188   1.292  0.00  0.00    +0.000 C 
ATOM      7  C19 UNL     1      12.788  -7.344   0.371  0.00  0.00    +0.000 C 
ATOM      8  N2  UNL     1      12.299  -6.199   2.413  0.00  0.00    +0.000 NA
ENDROOT
BRANCH   5   9
ATOM      9  C7  UNL     1      14.899  -5.312  -0.228  0.00  0.00    +0.000 C 
ATOM     10  C8  UNL     1      15.514  -4.100  -0.943  0.00  0.00    +0.000 C 
ATOM     11  C9  UNL     1      16.576  -4.671  -1.885  0.00  0.00    +0.000 C 
ATOM     12  C10 UNL     1      16.840  -6.109  -1.413  0.00  0.00    +0.000 C 
ATOM     13  C11 UNL     1      18.314  -6.481  -1.446  0.00  0.00    +0.000 C 
ATOM     14  C12 UNL     1      16.127  -6.247  -0.053  0.00  0.00    +0.000 C 
BRANCH  14  15
ATOM     15  C13 UNL     1      17.029  -5.896   1.131  0.00  0.00    +0.000 C 
ATOM     16  O2  UNL     1      17.576  -4.800   1.240  0.00  0.00    +0.000 OA
BRANCH  15  17
ATOM     17  C14 UNL     1      17.296  -6.988   2.154  0.00  0.00    +0.000 C 
BRANCH  17  18
ATOM     18  C15 UNL     1      16.087  -7.900   2.403  0.00  0.00    +0.000 C 
ATOM     19  C16 UNL     1      16.538  -9.361   2.394  0.00  0.00    +0.000 C 
ATOM     20  C17 UNL     1      15.391  -7.577   3.732  0.00  0.00    +0.000 C 
ENDBRANCH  17  18
ENDBRANCH  15  17
ENDBRANCH  14  15
ENDBRANCH   5   9
BRANCH   4  21
ATOM     21  C5  UNL     1      14.700  -2.817   1.654  0.00  0.00    +0.000 C 
ATOM     22  N1  UNL     1      15.709  -2.317   2.295  0.00  0.00    +0.000 NA
BRANCH  22  23
ATOM     23  O1  UNL     1      16.189  -3.190   3.281  0.00  0.00    +0.000 OA
ATOM     24  H   UNL     1      16.890  -2.923   3.842  0.00  0.00    +0.000 HD
ENDBRANCH  22  23
ENDBRANCH   4  21
TORSDOF 6
ENDMDL
MODEL 7
REMARK VINA RESULT:    -4.967     22.136     24.623
REMARK INTER + INTRA:          -7.759
REMARK INTER:                  -6.502
REMARK INTRA:                  -1.257
REMARK UNBOUND:                -1.195
REMARK  Name = laboratorio_evolutivo\Gen7_Mutante_8.pdb
REMARK  11 active torsions:
REMARK  status: ('A' for Active; 'I' for Inactive)
REMARK    1  A    between atoms: C1_1  and  C2_2
REMARK    2  A    between atoms: C4_4  and  C5_5
REMARK    3  A    between atoms: N1_6  and  O1_7
REMARK    4  A    between atoms: C6_8  and  C7_9
REMARK    5  A    between atoms: C10_12  and  C11_13
REMARK    6  A    between atoms: C12_14  and  C13_15
REMARK    7  A    between atoms: C13_15  and  C14_17
REMARK    8  A    between atoms: C14_17  and  C15_18
REMARK    9  A    between atoms: C15_18  and  C16_19
REMARK   10  A    between atoms: C15_18  and  C17_20
REMARK   11  A    between atoms: C18_21  and  C19_22
REMARK                            x       y       z     vdW  Elec       q    Type
REMARK                         _______ _______ _______ _____ _____    ______ ____
ROOT
ATOM      1  C1  UNL     1      17.704  -7.892  -2.700  0.00  0.00    +0.000 C 
ATOM      2  C2  UNL     1      17.002  -7.621  -1.404  0.00  0.00    +0.000 C 
ATOM      3  C3  UNL     1      17.638  -6.927  -0.399  0.00  0.00    +0.000 C 
ATOM      4  C4  UNL     1      16.948  -6.677   0.793  0.00  0.00    +0.000 C 
ATOM      5  C6  UNL     1      15.616  -7.098   0.976  0.00  0.00    +0.000 C 
ATOM      6  C18 UNL     1      15.084  -7.850  -0.094  0.00  0.00    +0.000 C 
ATOM      7  C19 UNL     1      13.739  -8.523  -0.037  0.00  0.00    +0.000 C 
ATOM      8  N2  UNL     1      15.750  -8.085  -1.255  0.00  0.00    +0.000 NA
ENDROOT
BRANCH   5   9
ATOM      9  C7  UNL     1      14.742  -6.789   2.184  0.00  0.00    +0.000 C 
ATOM     10  C8  UNL     1      15.331  -6.481   3.568  0.00  0.00    +0.000 C 
ATOM     11  C9  UNL     1      14.171  -5.926   4.397  0.00  0.00    +0.000 C 
ATOM     12  C10 UNL     1      13.071  -5.544   3.394  0.00  0.00    +0.000 C 
ATOM     13  C11 UNL     1      12.387  -4.230   3.739  0.00  0.00    +0.000 C 
ATOM     14  C12 UNL     1      13.720  -5.634   1.998  0.00  0.00    +0.000 C 
BRANCH  14  15
ATOM     15  C13 UNL     1      14.334  -4.310   1.540  0.00  0.00    +0.000 C 
ATOM     16  O2  UNL     1      15.238  -3.752   2.160  0.00  0.00    +0.000 OA
BRANCH  15  17
ATOM     17  C14 UNL     1      13.732  -3.650   0.309  0.00  0.00    +0.000 C 
BRANCH  17  18
ATOM     18  C15 UNL     1      13.870  -4.494  -0.965  0.00  0.00    +0.000 C 
ATOM     19  C16 UNL     1      12.788  -4.088  -1.967  0.00  0.00    +0.000 C 
ATOM     20  C17 UNL     1      15.257  -4.342  -1.605  0.00  0.00    +0.000 C 
ENDBRANCH  17  18
ENDBRANCH  15  17
ENDBRANCH  14  15
ENDBRANCH   5   9
BRANCH   4  21
ATOM     21  C5  UNL     1      17.783  -6.112   1.868  0.00  0.00    +0.000 C 
ATOM     22  N1  UNL     1      18.264  -4.912   1.959  0.00  0.00    +0.000 NA
BRANCH  22  23
ATOM     23  O1  UNL     1      17.833  -4.092   0.906  0.00  0.00    +0.000 OA
ATOM     24  H   UNL     1      17.288  -4.446   0.230  0.00  0.00    +0.000 HD
ENDBRANCH  22  23
ENDBRANCH   4  21
TORSDOF 6
ENDMDL
MODEL 8
REMARK VINA RESULT:    -4.850      2.927      5.982
REMARK INTER + INTRA:          -7.605
REMARK INTER:                  -6.675
REMARK INTRA:                  -0.930
REMARK UNBOUND:                -1.195
REMARK  Name = laboratorio_evolutivo\Gen7_Mutante_8.pdb
REMARK  11 active torsions:
REMARK  status: ('A' for Active; 'I' for Inactive)
REMARK    1  A    between atoms: C1_1  and  C2_2
REMARK    2  A    between atoms: C4_4  and  C5_5
REMARK    3  A    between atoms: N1_6  and  O1_7
REMARK    4  A    between atoms: C6_8  and  C7_9
REMARK    5  A    between atoms: C10_12  and  C11_13
REMARK    6  A    between atoms: C12_14  and  C13_15
REMARK    7  A    between atoms: C13_15  and  C14_17
REMARK    8  A    between atoms: C14_17  and  C15_18
REMARK    9  A    between atoms: C15_18  and  C16_19
REMARK   10  A    between atoms: C15_18  and  C17_20
REMARK   11  A    between atoms: C18_21  and  C19_22
REMARK                            x       y       z     vdW  Elec       q    Type
REMARK                         _______ _______ _______ _____ _____    ______ ____
ROOT
ATOM      1  C1  UNL     1      -0.101  -1.263  21.041  0.00  0.00    +0.000 C 
ATOM      2  C2  UNL     1       0.600  -1.586  19.756  0.00  0.00    +0.000 C 
ATOM      3  C3  UNL     1       0.665  -2.885  19.306  0.00  0.00    +0.000 C 
ATOM      4  C4  UNL     1       1.313  -3.150  18.094  0.00  0.00    +0.000 C 
ATOM      5  C6  UNL     1       1.877  -2.118  17.318  0.00  0.00    +0.000 C 
ATOM      6  C18 UNL     1       1.804  -0.835  17.903  0.00  0.00    +0.000 C 
ATOM      7  C19 UNL     1       2.478   0.376  17.316  0.00  0.00    +0.000 C 
ATOM      8  N2  UNL     1       1.167  -0.576  19.075  0.00  0.00    +0.000 NA
ENDROOT
BRANCH   5   9
ATOM      9  C7  UNL     1       2.508  -2.281  15.942  0.00  0.00    +0.000 C 
ATOM     10  C8  UNL     1       3.072  -3.621  15.449  0.00  0.00    +0.000 C 
ATOM     11  C9  UNL     1       3.311  -3.443  13.949  0.00  0.00    +0.000 C 
ATOM     12  C10 UNL     1       2.521  -2.192  13.534  0.00  0.00    +0.000 C 
ATOM     13  C11 UNL     1       1.815  -2.355  12.197  0.00  0.00    +0.000 C 
ATOM     14  C12 UNL     1       1.631  -1.834  14.741  0.00  0.00    +0.000 C 
BRANCH  14  15
ATOM     15  C13 UNL     1       0.251  -2.492  14.681  0.00  0.00    +0.000 C 
ATOM     16  O2  UNL     1       0.106  -3.711  14.607  0.00  0.00    +0.000 OA
BRANCH  15  17
ATOM     17  C14 UNL     1      -0.959  -1.574  14.640  0.00  0.00    +0.000 C 
BRANCH  17  18
ATOM     18  C15 UNL     1      -0.787  -0.297  15.473  0.00  0.00    +0.000 C 
ATOM     19  C16 UNL     1      -1.108   0.924  14.611  0.00  0.00    +0.000 C 
ATOM     20  C17 UNL     1      -1.679  -0.304  16.722  0.00  0.00    +0.000 C 
ENDBRANCH  17  18
ENDBRANCH  15  17
ENDBRANCH  14  15
ENDBRANCH   5   9
BRANCH   4  21
ATOM     21  C5  UNL     1       1.502  -4.584  17.810  0.00  0.00    +0.000 C 
ATOM     22  N1  UNL     1       2.452  -5.362  18.222  0.00  0.00    +0.000 NA
BRANCH  22  23
ATOM     23  O1  UNL     1       3.326  -4.704  19.099  0.00  0.00    +0.000 OA
ATOM     24  H   UNL     1       3.172  -3.809  19.329  0.00  0.00    +0.000 HD
ENDBRANCH  22  23
ENDBRANCH   4  21
TORSDOF 6
ENDMDL
MODEL 9
REMARK VINA RESULT:    -4.658      1.909      2.737
REMARK INTER + INTRA:          -7.352
REMARK INTER:                  -6.086
REMARK INTRA:                  -1.266
REMARK UNBOUND:                -1.195
REMARK  Name = laboratorio_evolutivo\Gen7_Mutante_8.pdb
REMARK  11 active torsions:
REMARK  status: ('A' for Active; 'I' for Inactive)
REMARK    1  A    between atoms: C1_1  and  C2_2
REMARK    2  A    between atoms: C4_4  and  C5_5
REMARK    3  A    between atoms: N1_6  and  O1_7
REMARK    4  A    between atoms: C6_8  and  C7_9
REMARK    5  A    between atoms: C10_12  and  C11_13
REMARK    6  A    between atoms: C12_14  and  C13_15
REMARK    7  A    between atoms: C13_15  and  C14_17
REMARK    8  A    between atoms: C14_17  and  C15_18
REMARK    9  A    between atoms: C15_18  and  C16_19
REMARK   10  A    between atoms: C15_18  and  C17_20
REMARK   11  A    between atoms: C18_21  and  C19_22
REMARK                            x       y       z     vdW  Elec       q    Type
REMARK                         _______ _______ _______ _____ _____    ______ ____
ROOT
ATOM      1  C1  UNL     1      -2.776   3.242  17.206  0.00  0.00    +0.000 C 
ATOM      2  C2  UNL     1      -1.885   2.217  17.840  0.00  0.00    +0.000 C 
ATOM      3  C3  UNL     1      -2.413   1.252  18.668  0.00  0.00    +0.000 C 
ATOM      4  C4  UNL     1      -1.555   0.300  19.231  0.00  0.00    +0.000 C 
ATOM      5  C6  UNL     1      -0.173   0.295  18.952  0.00  0.00    +0.000 C 
ATOM      6  C18 UNL     1       0.266   1.363  18.139  0.00  0.00    +0.000 C 
ATOM      7  C19 UNL     1       1.718   1.631  17.849  0.00  0.00    +0.000 C 
ATOM      8  N2  UNL     1      -0.568   2.282  17.585  0.00  0.00    +0.000 NA
ENDROOT
BRANCH   5   9
ATOM      9  C7  UNL     1       0.827  -0.751  19.424  0.00  0.00    +0.000 C 
ATOM     10  C8  UNL     1       0.596  -1.602  20.680  0.00  0.00    +0.000 C 
ATOM     11  C9  UNL     1       1.644  -2.716  20.623  0.00  0.00    +0.000 C 
ATOM     12  C10 UNL     1       2.171  -2.736  19.180  0.00  0.00    +0.000 C 
ATOM     13  C11 UNL     1       2.371  -4.145  18.643  0.00  0.00    +0.000 C 
ATOM     14  C12 UNL     1       1.230  -1.821  18.372  0.00  0.00    +0.000 C 
BRANCH  14  15
ATOM     15  C13 UNL     1       0.053  -2.576  17.751  0.00  0.00    +0.000 C 
ATOM     16  O2  UNL     1      -0.654  -3.345  18.400  0.00  0.00    +0.000 OA
BRANCH  15  17
ATOM     17  C14 UNL     1      -0.179  -2.402  16.259  0.00  0.00    +0.000 C 
BRANCH  17  18
ATOM     18  C15 UNL     1       0.748  -1.364  15.613  0.00  0.00    +0.000 C 
ATOM     19  C16 UNL     1       1.728  -2.066  14.673  0.00  0.00    +0.000 C 
ATOM     20  C17 UNL     1      -0.038  -0.295  14.843  0.00  0.00    +0.000 C 
ENDBRANCH  17  18
ENDBRANCH  15  17
ENDBRANCH  14  15
ENDBRANCH   5   9
BRANCH   4  21
ATOM     21  C5  UNL     1      -2.186  -0.553  20.253  0.00  0.00    +0.000 C 
ATOM     22  N1  UNL     1      -2.982  -1.560  20.074  0.00  0.00    +0.000 NA
BRANCH  22  23
ATOM     23  O1  UNL     1      -3.155  -1.856  18.714  0.00  0.00    +0.000 OA
ATOM     24  H   UNL     1      -3.961  -2.228  18.415  0.00  0.00    +0.000 HD
ENDBRANCH  22  23
ENDBRANCH   4  21
TORSDOF 6
ENDMDL
