MODEL 1
REMARK VINA RESULT:    -5.944      0.000      0.000
REMARK INTER + INTRA:          -9.072
REMARK INTER:                  -7.855
REMARK INTRA:                  -1.217
REMARK UNBOUND:                -1.217
REMARK  Name = laboratorio_evolutivo\Gen7_Mutante_5.pdb
REMARK  10 active torsions:
REMARK  status: ('A' for Active; 'I' for Inactive)
REMARK    1  A    between atoms: C1_1  and  C2_2
REMARK    2  A    between atoms: C4_4  and  C5_5
REMARK    3  A    between atoms: N1_6  and  O1_7
REMARK    4  A    between atoms: C6_8  and  C7_9
REMARK    5  A    between atoms: C10_12  and  C11_13
REMARK    6  A    between atoms: C12_14  and  C13_15
REMARK    7  A    between atoms: C13_15  and  C14_17
REMARK    8  A    between atoms: C14_17  and  C15_18
REMARK    9  A    between atoms: C15_18  and  C16_19
REMARK   10  A    between atoms: C15_18  and  C17_20
REMARK                            x       y       z     vdW  Elec       q    Type
REMARK                         _______ _______ _______ _____ _____    ______ ____
ROOT
ATOM      1  C1  UNL     1      13.925  -3.675  -1.315  0.00  0.00    +0.000 C 
ATOM      2  C2  UNL     1      14.970  -4.203  -0.380  0.00  0.00    +0.000 C 
ATOM      3  C3  UNL     1      14.609  -4.766   0.830  0.00  0.00    +0.000 C 
ATOM      4  C4  UNL     1      15.614  -5.256   1.667  0.00  0.00    +0.000 C 
ATOM      5  C6  UNL     1      16.968  -5.168   1.307  0.00  0.00    +0.000 C 
ATOM      6  C18 UNL     1      17.208  -4.595   0.060  0.00  0.00    +0.000 C 
ATOM      7  F1  UNL     1      18.467  -4.507  -0.393  0.00  0.00    +0.000 F 
ATOM      8  N2  UNL     1      16.257  -4.109  -0.768  0.00  0.00    +0.000 NA
ENDROOT
BRANCH   5   9
ATOM      9  C7  UNL     1      18.080  -5.712   2.179  0.00  0.00    +0.000 C 
ATOM     10  C8  UNL     1      19.434  -4.967   2.138  0.00  0.00    +0.000 C 
ATOM     11  C9  UNL     1      20.462  -5.991   1.684  0.00  0.00    +0.000 C 
ATOM     12  C10 UNL     1      19.935  -7.329   2.206  0.00  0.00    +0.000 C 
ATOM     13  C11 UNL     1      20.307  -7.555   3.673  0.00  0.00    +0.000 C 
ATOM     14  C12 UNL     1      18.408  -7.218   2.016  0.00  0.00    +0.000 C 
BRANCH  14  15
ATOM     15  C13 UNL     1      17.999  -7.843   0.679  0.00  0.00    +0.000 C 
ATOM     16  O2  UNL     1      18.640  -7.643  -0.352  0.00  0.00    +0.000 OA
BRANCH  15  17
ATOM     17  C14 UNL     1      16.783  -8.761   0.713  0.00  0.00    +0.000 C 
BRANCH  17  18
ATOM     18  C15 UNL     1      16.402  -9.250   2.117  0.00  0.00    +0.000 C 
ATOM     19  C16 UNL     1      14.888  -9.448   2.206  0.00  0.00    +0.000 C 
ATOM     20  C17 UNL     1      17.112 -10.559   2.471  0.00  0.00    +0.000 C 
ENDBRANCH  17  18
ENDBRANCH  15  17
ENDBRANCH  14  15
ENDBRANCH   5   9
BRANCH   4  21
ATOM     21  C5  UNL     1      15.203  -5.815   2.972  0.00  0.00    +0.000 C 
ATOM     22  N1  UNL     1      14.996  -5.174   4.084  0.00  0.00    +0.000 NA
BRANCH  22  23
ATOM     23  O1  UNL     1      15.152  -3.793   3.941  0.00  0.00    +0.000 OA
ATOM     24  H   UNL     1      15.676  -3.315   4.554  0.00  0.00    +0.000 HD
ENDBRANCH  22  23
ENDBRANCH   4  21
TORSDOF 6
ENDMDL
MODEL 2
REMARK VINA RESULT:    -5.801      2.035      2.660
REMARK INTER + INTRA:          -8.883
REMARK INTER:                  -7.715
REMARK INTRA:                  -1.168
REMARK UNBOUND:                -1.217
REMARK  Name = laboratorio_evolutivo\Gen7_Mutante_5.pdb
REMARK  10 active torsions:
REMARK  status: ('A' for Active; 'I' for Inactive)
REMARK    1  A    between atoms: C1_1  and  C2_2
REMARK    2  A    between atoms: C4_4  and  C5_5
REMARK    3  A    between atoms: N1_6  and  O1_7
REMARK    4  A    between atoms: C6_8  and  C7_9
REMARK    5  A    between atoms: C10_12  and  C11_13
REMARK    6  A    between atoms: C12_14  and  C13_15
REMARK    7  A    between atoms: C13_15  and  C14_17
REMARK    8  A    between atoms: C14_17  and  C15_18
REMARK    9  A    between atoms: C15_18  and  C16_19
REMARK   10  A    between atoms: C15_18  and  C17_20
REMARK                            x       y       z     vdW  Elec       q    Type
REMARK                         _______ _______ _______ _____ _____    ______ ____
ROOT
ATOM      1  C1  UNL     1      12.710  -2.352  -0.306  0.00  0.00    +0.000 C 
ATOM      2  C2  UNL     1      14.000  -2.951   0.165  0.00  0.00    +0.000 C 
ATOM      3  C3  UNL     1      14.443  -2.735   1.457  0.00  0.00    +0.000 C 
ATOM      4  C4  UNL     1      15.645  -3.322   1.859  0.00  0.00    +0.000 C 
ATOM      5  C6  UNL     1      16.406  -4.101   0.974  0.00  0.00    +0.000 C 
ATOM      6  C18 UNL     1      15.852  -4.261  -0.294  0.00  0.00    +0.000 C 
ATOM      7  F1  UNL     1      16.483  -5.026  -1.197  0.00  0.00    +0.000 F 
ATOM      8  N2  UNL     1      14.694  -3.702  -0.712  0.00  0.00    +0.000 NA
ENDROOT
BRANCH   5   9
ATOM      9  C7  UNL     1      17.700  -4.772   1.385  0.00  0.00    +0.000 C 
ATOM     10  C8  UNL     1      18.799  -4.902   0.305  0.00  0.00    +0.000 C 
ATOM     11  C9  UNL     1      19.078  -6.391   0.170  0.00  0.00    +0.000 C 
ATOM     12  C10 UNL     1      18.800  -6.967   1.560  0.00  0.00    +0.000 C 
ATOM     13  C11 UNL     1      19.994  -6.794   2.499  0.00  0.00    +0.000 C 
ATOM     14  C12 UNL     1      17.572  -6.169   2.045  0.00  0.00    +0.000 C 
BRANCH  14  15
ATOM     15  C13 UNL     1      16.286  -6.937   1.724  0.00  0.00    +0.000 C 
ATOM     16  O2  UNL     1      16.130  -7.516   0.650  0.00  0.00    +0.000 OA
BRANCH  15  17
ATOM     17  C14 UNL     1      15.237  -6.977   2.827  0.00  0.00    +0.000 C 
BRANCH  17  18
ATOM     18  C15 UNL     1      13.910  -6.297   2.462  0.00  0.00    +0.000 C 
ATOM     19  C16 UNL     1      12.940  -7.328   1.882  0.00  0.00    +0.000 C 
ATOM     20  C17 UNL     1      13.272  -5.616   3.674  0.00  0.00    +0.000 C 
ENDBRANCH  17  18
ENDBRANCH  15  17
ENDBRANCH  14  15
ENDBRANCH   5   9
BRANCH   4  21
ATOM     21  C5  UNL     1      16.116  -3.040   3.231  0.00  0.00    +0.000 C 
ATOM     22  N1  UNL     1      16.755  -1.990   3.655  0.00  0.00    +0.000 NA
BRANCH  22  23
ATOM     23  O1  UNL     1      16.940  -1.036   2.651  0.00  0.00    +0.000 OA
ATOM     24  H   UNL     1      16.780  -1.261   1.756  0.00  0.00    +0.000 HD
ENDBRANCH  22  23
ENDBRANCH   4  21
TORSDOF 6
ENDMDL
MODEL 3
REMARK VINA RESULT:    -5.768     22.530     25.065
REMARK INTER + INTRA:          -8.839
REMARK INTER:                  -8.040
REMARK INTRA:                  -0.799
REMARK UNBOUND:                -1.217
REMARK  Name = laboratorio_evolutivo\Gen7_Mutante_5.pdb
REMARK  10 active torsions:
REMARK  status: ('A' for Active; 'I' for Inactive)
REMARK    1  A    between atoms: C1_1  and  C2_2
REMARK    2  A    between atoms: C4_4  and  C5_5
REMARK    3  A    between atoms: N1_6  and  O1_7
REMARK    4  A    between atoms: C6_8  and  C7_9
REMARK    5  A    between atoms: C10_12  and  C11_13
REMARK    6  A    between atoms: C12_14  and  C13_15
REMARK    7  A    between atoms: C13_15  and  C14_17
REMARK    8  A    between atoms: C14_17  and  C15_18
REMARK    9  A    between atoms: C15_18  and  C16_19
REMARK   10  A    between atoms: C15_18  and  C17_20
REMARK                            x       y       z     vdW  Elec       q    Type
REMARK                         _______ _______ _______ _____ _____    ______ ____
ROOT
ATOM      1  C1  UNL     1      -1.334  -4.840  16.140  0.00  0.00    +0.000 C 
ATOM      2  C2  UNL     1      -0.467  -4.029  17.055  0.00  0.00    +0.000 C 
ATOM      3  C3  UNL     1       0.451  -3.134  16.538  0.00  0.00    +0.000 C 
ATOM      4  C4  UNL     1       1.232  -2.390  17.427  0.00  0.00    +0.000 C 
ATOM      5  C6  UNL     1       1.108  -2.551  18.815  0.00  0.00    +0.000 C 
ATOM      6  C18 UNL     1       0.141  -3.470  19.217  0.00  0.00    +0.000 C 
ATOM      7  F1  UNL     1      -0.083  -3.662  20.524  0.00  0.00    +0.000 F 
ATOM      8  N2  UNL     1      -0.625  -4.206  18.380  0.00  0.00    +0.000 NA
ENDROOT
BRANCH   5   9
ATOM      9  C7  UNL     1       1.920  -1.743  19.805  0.00  0.00    +0.000 C 
ATOM     10  C8  UNL     1       2.155  -2.368  21.199  0.00  0.00    +0.000 C 
ATOM     11  C9  UNL     1       1.564  -1.389  22.202  0.00  0.00    +0.000 C 
ATOM     12  C10 UNL     1       1.729  -0.016  21.548  0.00  0.00    +0.000 C 
ATOM     13  C11 UNL     1       3.131   0.555  21.766  0.00  0.00    +0.000 C 
ATOM     14  C12 UNL     1       1.449  -0.287  20.056  0.00  0.00    +0.000 C 
BRANCH  14  15
ATOM     15  C13 UNL     1      -0.023  -0.005  19.738  0.00  0.00    +0.000 C 
ATOM     16  O2  UNL     1      -0.371   0.477  18.661  0.00  0.00    +0.000 OA
BRANCH  15  17
ATOM     17  C14 UNL     1      -1.028  -0.399  20.813  0.00  0.00    +0.000 C 
BRANCH  17  18
ATOM     18  C15 UNL     1      -2.371  -0.903  20.266  0.00  0.00    +0.000 C 
ATOM     19  C16 UNL     1      -2.818  -2.141  21.045  0.00  0.00    +0.000 C 
ATOM     20  C17 UNL     1      -3.454   0.175  20.349  0.00  0.00    +0.000 C 
ENDBRANCH  17  18
ENDBRANCH  15  17
ENDBRANCH  14  15
ENDBRANCH   5   9
BRANCH   4  21
ATOM     21  C5  UNL     1       2.234  -1.471  16.848  0.00  0.00    +0.000 C 
ATOM     22  N1  UNL     1       3.468  -1.733  16.533  0.00  0.00    +0.000 NA
BRANCH  22  23
ATOM     23  O1  UNL     1       3.801  -3.073  16.748  0.00  0.00    +0.000 OA
ATOM     24  H   UNL     1       3.552  -3.724  16.121  0.00  0.00    +0.000 HD
ENDBRANCH  22  23
ENDBRANCH   4  21
TORSDOF 6
ENDMDL
MODEL 4
REMARK VINA RESULT:    -5.656     23.116     25.443
REMARK INTER + INTRA:          -8.691
REMARK INTER:                  -7.627
REMARK INTRA:                  -1.063
REMARK UNBOUND:                -1.217
REMARK  Name = laboratorio_evolutivo\Gen7_Mutante_5.pdb
REMARK  10 active torsions:
REMARK  status: ('A' for Active; 'I' for Inactive)
REMARK    1  A    between atoms: C1_1  and  C2_2
REMARK    2  A    between atoms: C4_4  and  C5_5
REMARK    3  A    between atoms: N1_6  and  O1_7
REMARK    4  A    between atoms: C6_8  and  C7_9
REMARK    5  A    between atoms: C10_12  and  C11_13
REMARK    6  A    between atoms: C12_14  and  C13_15
REMARK    7  A    between atoms: C13_15  and  C14_17
REMARK    8  A    between atoms: C14_17  and  C15_18
REMARK    9  A    between atoms: C15_18  and  C16_19
REMARK   10  A    between atoms: C15_18  and  C17_20
REMARK                            x       y       z     vdW  Elec       q    Type
REMARK                         _______ _______ _______ _____ _____    ______ ____
ROOT
ATOM      1  C1  UNL     1       3.738   1.360  22.997  0.00  0.00    +0.000 C 
ATOM      2  C2  UNL     1       2.615   1.260  22.009  0.00  0.00    +0.000 C 
ATOM      3  C3  UNL     1       2.455   2.224  21.031  0.00  0.00    +0.000 C 
ATOM      4  C4  UNL     1       1.402   2.087  20.123  0.00  0.00    +0.000 C 
ATOM      5  C6  UNL     1       0.508   1.008  20.202  0.00  0.00    +0.000 C 
ATOM      6  C18 UNL     1       0.779   0.095  21.219  0.00  0.00    +0.000 C 
ATOM      7  F1  UNL     1       0.007  -0.994  21.349  0.00  0.00    +0.000 F 
ATOM      8  N2  UNL     1       1.787   0.204  22.113  0.00  0.00    +0.000 NA
ENDROOT
BRANCH   5   9
ATOM      9  C7  UNL     1      -0.627   0.817  19.220  0.00  0.00    +0.000 C 
ATOM     10  C8  UNL     1      -1.883   0.074  19.732  0.00  0.00    +0.000 C 
ATOM     11  C9  UNL     1      -2.048  -1.140  18.831  0.00  0.00    +0.000 C 
ATOM     12  C10 UNL     1      -1.478  -0.703  17.481  0.00  0.00    +0.000 C 
ATOM     13  C11 UNL     1      -2.499   0.086  16.659  0.00  0.00    +0.000 C 
ATOM     14  C12 UNL     1      -0.261   0.164  17.862  0.00  0.00    +0.000 C 
BRANCH  14  15
ATOM     15  C13 UNL     1       1.012  -0.689  17.862  0.00  0.00    +0.000 C 
ATOM     16  O2  UNL     1       2.132  -0.179  17.875  0.00  0.00    +0.000 OA
BRANCH  15  17
ATOM     17  C14 UNL     1       0.807  -2.198  17.892  0.00  0.00    +0.000 C 
BRANCH  17  18
ATOM     18  C15 UNL     1       1.462  -2.899  19.090  0.00  0.00    +0.000 C 
ATOM     19  C16 UNL     1       0.429  -3.764  19.815  0.00  0.00    +0.000 C 
ATOM     20  C17 UNL     1       2.645  -3.768  18.658  0.00  0.00    +0.000 C 
ENDBRANCH  17  18
ENDBRANCH  15  17
ENDBRANCH  14  15
ENDBRANCH   5   9
BRANCH   4  21
ATOM     21  C5  UNL     1       1.229   3.153  19.114  0.00  0.00    +0.000 C 
ATOM     22  N1  UNL     1       1.981   3.406  18.084  0.00  0.00    +0.000 NA
BRANCH  22  23
ATOM     23  O1  UNL     1       3.028   2.491  17.950  0.00  0.00    +0.000 OA
ATOM     24  H   UNL     1       3.149   2.032  17.142  0.00  0.00    +0.000 HD
ENDBRANCH  22  23
ENDBRANCH   4  21
TORSDOF 6
ENDMDL
MODEL 5
REMARK VINA RESULT:    -5.509     28.568     31.159
REMARK INTER + INTRA:          -8.497
REMARK INTER:                  -7.434
REMARK INTRA:                  -1.063
REMARK UNBOUND:                -1.217
REMARK  Name = laboratorio_evolutivo\Gen7_Mutante_5.pdb
REMARK  10 active torsions:
REMARK  status: ('A' for Active; 'I' for Inactive)
REMARK    1  A    between atoms: C1_1  and  C2_2
REMARK    2  A    between atoms: C4_4  and  C5_5
REMARK    3  A    between atoms: N1_6  and  O1_7
REMARK    4  A    between atoms: C6_8  and  C7_9
REMARK    5  A    between atoms: C10_12  and  C11_13
REMARK    6  A    between atoms: C12_14  and  C13_15
REMARK    7  A    between atoms: C13_15  and  C14_17
REMARK    8  A    between atoms: C14_17  and  C15_18
REMARK    9  A    between atoms: C15_18  and  C16_19
REMARK   10  A    between atoms: C15_18  and  C17_20
REMARK                            x       y       z     vdW  Elec       q    Type
REMARK                         _______ _______ _______ _____ _____    ______ ____
ROOT
ATOM      1  C1  UNL     1      -1.248 -11.995  20.894  0.00  0.00    +0.000 C 
ATOM      2  C2  UNL     1      -2.692 -12.395  20.924  0.00  0.00    +0.000 C 
ATOM      3  C3  UNL     1      -3.545 -12.022  19.902  0.00  0.00    +0.000 C 
ATOM      4  C4  UNL     1      -4.881 -12.426  19.964  0.00  0.00    +0.000 C 
ATOM      5  C6  UNL     1      -5.364 -13.180  21.044  0.00  0.00    +0.000 C 
ATOM      6  C18 UNL     1      -4.409 -13.509  22.005  0.00  0.00    +0.000 C 
ATOM      7  F1  UNL     1      -4.763 -14.266  23.053  0.00  0.00    +0.000 F 
ATOM      8  N2  UNL     1      -3.112 -13.128  21.973  0.00  0.00    +0.000 NA
ENDROOT
BRANCH   5   9
ATOM      9  C7  UNL     1      -6.798 -13.656  21.130  0.00  0.00    +0.000 C 
ATOM     10  C8  UNL     1      -7.436 -13.718  22.537  0.00  0.00    +0.000 C 
ATOM     11  C9  UNL     1      -7.853 -15.166  22.743  0.00  0.00    +0.000 C 
ATOM     12  C10 UNL     1      -8.182 -15.680  21.341  0.00  0.00    +0.000 C 
ATOM     13  C11 UNL     1      -9.600 -15.298  20.911  0.00  0.00    +0.000 C 
ATOM     14  C12 UNL     1      -7.116 -15.012  20.448  0.00  0.00    +0.000 C 
BRANCH  14  15
ATOM     15  C13 UNL     1      -5.922 -15.953  20.261  0.00  0.00    +0.000 C 
ATOM     16  O2  UNL     1      -5.209 -15.902  19.260  0.00  0.00    +0.000 OA
BRANCH  15  17
ATOM     17  C14 UNL     1      -5.645 -16.919  21.406  0.00  0.00    +0.000 C 
BRANCH  17  18
ATOM     18  C15 UNL     1      -5.633 -18.398  20.995  0.00  0.00    +0.000 C 
ATOM     19  C16 UNL     1      -4.202 -18.937  21.034  0.00  0.00    +0.000 C 
ATOM     20  C17 UNL     1      -6.525 -19.244  21.906  0.00  0.00    +0.000 C 
ENDBRANCH  17  18
ENDBRANCH  15  17
ENDBRANCH  14  15
ENDBRANCH   5   9
BRANCH   4  21
ATOM     21  C5  UNL     1      -5.780 -11.978  18.880  0.00  0.00    +0.000 C 
ATOM     22  N1  UNL     1      -5.970 -12.534  17.720  0.00  0.00    +0.000 NA
BRANCH  22  23
ATOM     23  O1  UNL     1      -5.243 -13.719  17.571  0.00  0.00    +0.000 OA
ATOM     24  H   UNL     1      -5.693 -14.532  17.452  0.00  0.00    +0.000 HD
ENDBRANCH  22  23
ENDBRANCH   4  21
TORSDOF 6
ENDMDL
MODEL 6
REMARK VINA RESULT:    -5.489     22.263     24.862
REMARK INTER + INTRA:          -8.470
REMARK INTER:                  -7.839
REMARK INTRA:                  -0.632
REMARK UNBOUND:                -1.217
REMARK  Name = laboratorio_evolutivo\Gen7_Mutante_5.pdb
REMARK  10 active torsions:
REMARK  status: ('A' for Active; 'I' for Inactive)
REMARK    1  A    between atoms: C1_1  and  C2_2
REMARK    2  A    between atoms: C4_4  and  C5_5
REMARK    3  A    between atoms: N1_6  and  O1_7
REMARK    4  A    between atoms: C6_8  and  C7_9
REMARK    5  A    between atoms: C10_12  and  C11_13
REMARK    6  A    between atoms: C12_14  and  C13_15
REMARK    7  A    between atoms: C13_15  and  C14_17
REMARK    8  A    between atoms: C14_17  and  C15_18
REMARK    9  A    between atoms: C15_18  and  C16_19
REMARK   10  A    between atoms: C15_18  and  C17_20
REMARK                            x       y       z     vdW  Elec       q    Type
REMARK                         _______ _______ _______ _____ _____    ______ ____
ROOT
ATOM      1  C1  UNL     1       2.403  -3.929  16.739  0.00  0.00    +0.000 C 
ATOM      2  C2  UNL     1       1.895  -2.574  17.131  0.00  0.00    +0.000 C 
ATOM      3  C3  UNL     1       0.649  -2.435  17.715  0.00  0.00    +0.000 C 
ATOM      4  C4  UNL     1       0.219  -1.156  18.076  0.00  0.00    +0.000 C 
ATOM      5  C6  UNL     1       1.017  -0.026  17.840  0.00  0.00    +0.000 C 
ATOM      6  C18 UNL     1       2.257  -0.292  17.260  0.00  0.00    +0.000 C 
ATOM      7  F1  UNL     1       3.110   0.717  17.036  0.00  0.00    +0.000 F 
ATOM      8  N2  UNL     1       2.697  -1.518  16.897  0.00  0.00    +0.000 NA
ENDROOT
BRANCH   5   9
ATOM      9  C7  UNL     1       0.593   1.371  18.241  0.00  0.00    +0.000 C 
ATOM     10  C8  UNL     1       1.018   2.530  17.311  0.00  0.00    +0.000 C 
ATOM     11  C9  UNL     1       1.850   3.471  18.169  0.00  0.00    +0.000 C 
ATOM     12  C10 UNL     1       1.279   3.319  19.579  0.00  0.00    +0.000 C 
ATOM     13  C11 UNL     1       0.031   4.180  19.786  0.00  0.00    +0.000 C 
ATOM     14  C12 UNL     1       0.956   1.814  19.682  0.00  0.00    +0.000 C 
BRANCH  14  15
ATOM     15  C13 UNL     1       2.128   1.068  20.326  0.00  0.00    +0.000 C 
ATOM     16  O2  UNL     1       2.014  -0.088  20.732  0.00  0.00    +0.000 OA
BRANCH  15  17
ATOM     17  C14 UNL     1       3.449   1.824  20.390  0.00  0.00    +0.000 C 
BRANCH  17  18
ATOM     18  C15 UNL     1       3.939   2.117  21.816  0.00  0.00    +0.000 C 
ATOM     19  C16 UNL     1       4.148   3.622  21.995  0.00  0.00    +0.000 C 
ATOM     20  C17 UNL     1       2.952   1.606  22.868  0.00  0.00    +0.000 C 
ENDBRANCH  17  18
ENDBRANCH  15  17
ENDBRANCH  14  15
ENDBRANCH   5   9
BRANCH   4  21
ATOM     21  C5  UNL     1      -1.133  -1.030  18.659  0.00  0.00    +0.000 C 
ATOM     22  N1  UNL     1      -1.481  -1.175  19.904  0.00  0.00    +0.000 NA
BRANCH  22  23
ATOM     23  O1  UNL     1      -0.388  -1.429  20.738  0.00  0.00    +0.000 OA
ATOM     24  H   UNL     1       0.454  -1.602  20.366  0.00  0.00    +0.000 HD
ENDBRANCH  22  23
ENDBRANCH   4  21
TORSDOF 6
ENDMDL
MODEL 7
REMARK VINA RESULT:    -5.476      2.611      5.065
REMARK INTER + INTRA:          -8.454
REMARK INTER:                  -7.361
REMARK INTRA:                  -1.093
REMARK UNBOUND:                -1.217
REMARK  Name = laboratorio_evolutivo\Gen7_Mutante_5.pdb
REMARK  10 active torsions:
REMARK  status: ('A' for Active; 'I' for Inactive)
REMARK    1  A    between atoms: C1_1  and  C2_2
REMARK    2  A    between atoms: C4_4  and  C5_5
REMARK    3  A    between atoms: N1_6  and  O1_7
REMARK    4  A    between atoms: C6_8  and  C7_9
REMARK    5  A    between atoms: C10_12  and  C11_13
REMARK    6  A    between atoms: C12_14  and  C13_15
REMARK    7  A    between atoms: C13_15  and  C14_17
REMARK    8  A    between atoms: C14_17  and  C15_18
REMARK    9  A    between atoms: C15_18  and  C16_19
REMARK   10  A    between atoms: C15_18  and  C17_20
REMARK                            x       y       z     vdW  Elec       q    Type
REMARK                         _______ _______ _______ _____ _____    ______ ____
ROOT
ATOM      1  C1  UNL     1      20.354  -4.502   2.197  0.00  0.00    +0.000 C 
ATOM      2  C2  UNL     1      19.682  -5.769   1.765  0.00  0.00    +0.000 C 
ATOM      3  C3  UNL     1      19.541  -6.824   2.648  0.00  0.00    +0.000 C 
ATOM      4  C4  UNL     1      18.898  -7.983   2.208  0.00  0.00    +0.000 C 
ATOM      5  C6  UNL     1      18.417  -8.095   0.895  0.00  0.00    +0.000 C 
ATOM      6  C18 UNL     1      18.603  -6.964   0.102  0.00  0.00    +0.000 C 
ATOM      7  F1  UNL     1      18.137  -6.956  -1.155  0.00  0.00    +0.000 F 
ATOM      8  N2  UNL     1      19.224  -5.831   0.500  0.00  0.00    +0.000 NA
ENDROOT
BRANCH   5   9
ATOM      9  C7  UNL     1      17.693  -9.327   0.394  0.00  0.00    +0.000 C 
ATOM     10  C8  UNL     1      17.865  -9.685  -1.101  0.00  0.00    +0.000 C 
ATOM     11  C9  UNL     1      16.466  -9.679  -1.696  0.00  0.00    +0.000 C 
ATOM     12  C10 UNL     1      15.551 -10.095  -0.543  0.00  0.00    +0.000 C 
ATOM     13  C11 UNL     1      15.507 -11.614  -0.368  0.00  0.00    +0.000 C 
ATOM     14  C12 UNL     1      16.172  -9.398   0.684  0.00  0.00    +0.000 C 
BRANCH  14  15
ATOM     15  C13 UNL     1      15.482  -8.052   0.929  0.00  0.00    +0.000 C 
ATOM     16  O2  UNL     1      15.065  -7.361   0.000  0.00  0.00    +0.000 OA
BRANCH  15  17
ATOM     17  C14 UNL     1      15.304  -7.646   2.386  0.00  0.00    +0.000 C 
BRANCH  17  18
ATOM     18  C15 UNL     1      14.901  -6.178   2.587  0.00  0.00    +0.000 C 
ATOM     19  C16 UNL     1      14.373  -5.974   4.008  0.00  0.00    +0.000 C 
ATOM     20  C17 UNL     1      16.076  -5.231   2.334  0.00  0.00    +0.000 C 
ENDBRANCH  17  18
ENDBRANCH  15  17
ENDBRANCH  14  15
ENDBRANCH   5   9
BRANCH   4  21
ATOM     21  C5  UNL     1      18.798  -9.110   3.159  0.00  0.00    +0.000 C 
ATOM     22  N1  UNL     1      19.686 -10.030   3.402  0.00  0.00    +0.000 NA
BRANCH  22  23
ATOM     23  O1  UNL     1      20.866  -9.837   2.680  0.00  0.00    +0.000 OA
ATOM     24  H   UNL     1      21.235  -8.978   2.605  0.00  0.00    +0.000 HD
ENDBRANCH  22  23
ENDBRANCH   4  21
TORSDOF 6
ENDMDL
MODEL 8
REMARK VINA RESULT:    -5.466     22.391     24.561
REMARK INTER + INTRA:          -8.440
REMARK INTER:                  -7.213
REMARK INTRA:                  -1.227
REMARK UNBOUND:                -1.217
REMARK  Name = laboratorio_evolutivo\Gen7_Mutante_5.pdb
REMARK  10 active torsions:
REMARK  status: ('A' for Active; 'I' for Inactive)
REMARK    1  A    between atoms: C1_1  and  C2_2
REMARK    2  A    between atoms: C4_4  and  C5_5
REMARK    3  A    between atoms: N1_6  and  O1_7
REMARK    4  A    between atoms: C6_8  and  C7_9
REMARK    5  A    between atoms: C10_12  and  C11_13
REMARK    6  A    between atoms: C12_14  and  C13_15
REMARK    7  A    between atoms: C13_15  and  C14_17
REMARK    8  A    between atoms: C14_17  and  C15_18
REMARK    9  A    between atoms: C15_18  and  C16_19
REMARK   10  A    between atoms: C15_18  and  C17_20
REMARK                            x       y       z     vdW  Elec       q    Type
REMARK                         _______ _______ _______ _____ _____    ______ ____
ROOT
ATOM      1  C1  UNL     1      -1.740  -3.706  15.652  0.00  0.00    +0.000 C 
ATOM      2  C2  UNL     1      -0.876  -3.178  16.758  0.00  0.00    +0.000 C 
ATOM      3  C3  UNL     1       0.492  -3.377  16.735  0.00  0.00    +0.000 C 
ATOM      4  C4  UNL     1       1.261  -2.858  17.779  0.00  0.00    +0.000 C 
ATOM      5  C6  UNL     1       0.668  -2.164  18.845  0.00  0.00    +0.000 C 
ATOM      6  C18 UNL     1      -0.715  -2.013  18.751  0.00  0.00    +0.000 C 
ATOM      7  F1  UNL     1      -1.368  -1.326  19.699  0.00  0.00    +0.000 F 
ATOM      8  N2  UNL     1      -1.484  -2.507  17.755  0.00  0.00    +0.000 NA
ENDROOT
BRANCH   5   9
ATOM      9  C7  UNL     1       1.474  -1.568  19.979  0.00  0.00    +0.000 C 
ATOM     10  C8  UNL     1       0.908  -1.732  21.408  0.00  0.00    +0.000 C 
ATOM     11  C9  UNL     1       0.722  -0.323  21.949  0.00  0.00    +0.000 C 
ATOM     12  C10 UNL     1       1.812   0.503  21.265  0.00  0.00    +0.000 C 
ATOM     13  C11 UNL     1       3.160   0.371  21.977  0.00  0.00    +0.000 C 
ATOM     14  C12 UNL     1       1.864  -0.074  19.836  0.00  0.00    +0.000 C 
BRANCH  14  15
ATOM     15  C13 UNL     1       0.975   0.754  18.903  0.00  0.00    +0.000 C 
ATOM     16  O2  UNL     1      -0.021   1.348  19.316  0.00  0.00    +0.000 OA
BRANCH  15  17
ATOM     17  C14 UNL     1       1.422   0.836  17.449  0.00  0.00    +0.000 C 
BRANCH  17  18
ATOM     18  C15 UNL     1       0.273   0.985  16.443  0.00  0.00    +0.000 C 
ATOM     19  C16 UNL     1       0.259   2.405  15.875  0.00  0.00    +0.000 C 
ATOM     20  C17 UNL     1       0.391  -0.024  15.298  0.00  0.00    +0.000 C 
ENDBRANCH  17  18
ENDBRANCH  15  17
ENDBRANCH  14  15
ENDBRANCH   5   9
BRANCH   4  21
ATOM     21  C5  UNL     1       2.715  -3.122  17.751  0.00  0.00    +0.000 C 
ATOM     22  N1  UNL     1       3.349  -4.148  18.235  0.00  0.00    +0.000 NA
BRANCH  22  23
ATOM     23  O1  UNL     1       2.485  -5.097  18.788  0.00  0.00    +0.000 OA
ATOM     24  H   UNL     1       2.020  -4.903  19.578  0.00  0.00    +0.000 HD
ENDBRANCH  22  23
ENDBRANCH   4  21
TORSDOF 6
ENDMDL
MODEL 9
REMARK VINA RESULT:    -5.421     23.748     26.377
REMARK INTER + INTRA:          -8.381
REMARK INTER:                  -7.091
REMARK INTRA:                  -1.290
REMARK UNBOUND:                -1.217
REMARK  Name = laboratorio_evolutivo\Gen7_Mutante_5.pdb
REMARK  10 active torsions:
REMARK  status: ('A' for Active; 'I' for Inactive)
REMARK    1  A    between atoms: C1_1  and  C2_2
REMARK    2  A    between atoms: C4_4  and  C5_5
REMARK    3  A    between atoms: N1_6  and  O1_7
REMARK    4  A    between atoms: C6_8  and  C7_9
REMARK    5  A    between atoms: C10_12  and  C11_13
REMARK    6  A    between atoms: C12_14  and  C13_15
REMARK    7  A    between atoms: C13_15  and  C14_17
REMARK    8  A    between atoms: C14_17  and  C15_18
REMARK    9  A    between atoms: C15_18  and  C16_19
REMARK   10  A    between atoms: C15_18  and  C17_20
REMARK                            x       y       z     vdW  Elec       q    Type
REMARK                         _______ _______ _______ _____ _____    ______ ____
ROOT
ATOM      1  C1  UNL     1       3.311   0.848  21.995  0.00  0.00    +0.000 C 
ATOM      2  C2  UNL     1       1.939   0.778  21.395  0.00  0.00    +0.000 C 
ATOM      3  C3  UNL     1       1.503   1.761  20.526  0.00  0.00    +0.000 C 
ATOM      4  C4  UNL     1       0.222   1.651  19.981  0.00  0.00    +0.000 C 
ATOM      5  C6  UNL     1      -0.621   0.579  20.313  0.00  0.00    +0.000 C 
ATOM      6  C18 UNL     1      -0.068  -0.356  21.185  0.00  0.00    +0.000 C 
ATOM      7  F1  UNL     1      -0.779  -1.439  21.527  0.00  0.00    +0.000 F 
ATOM      8  N2  UNL     1       1.167  -0.273  21.731  0.00  0.00    +0.000 NA
ENDROOT
BRANCH   5   9
ATOM      9  C7  UNL     1      -2.005   0.417  19.720  0.00  0.00    +0.000 C 
ATOM     10  C8  UNL     1      -3.099  -0.175  20.639  0.00  0.00    +0.000 C 
ATOM     11  C9  UNL     1      -3.595  -1.432  19.942  0.00  0.00    +0.000 C 
ATOM     12  C10 UNL     1      -3.421  -1.144  18.450  0.00  0.00    +0.000 C 
ATOM     13  C11 UNL     1      -4.587  -0.331  17.885  0.00  0.00    +0.000 C 
ATOM     14  C12 UNL     1      -2.094  -0.362  18.382  0.00  0.00    +0.000 C 
BRANCH  14  15
ATOM     15  C13 UNL     1      -0.933  -1.319  18.096  0.00  0.00    +0.000 C 
ATOM     16  O2  UNL     1      -0.884  -2.443  18.595  0.00  0.00    +0.000 OA
BRANCH  15  17
ATOM     17  C14 UNL     1       0.126  -0.816  17.125  0.00  0.00    +0.000 C 
BRANCH  17  18
ATOM     18  C15 UNL     1       1.562  -0.889  17.664  0.00  0.00    +0.000 C 
ATOM     19  C16 UNL     1       2.242  -2.164  17.161  0.00  0.00    +0.000 C 
ATOM     20  C17 UNL     1       2.385   0.331  17.244  0.00  0.00    +0.000 C 
ENDBRANCH  17  18
ENDBRANCH  15  17
ENDBRANCH  14  15
ENDBRANCH   5   9
BRANCH   4  21
ATOM     21  C5  UNL     1      -0.235   2.737  19.089  0.00  0.00    +0.000 C 
ATOM     22  N1  UNL     1      -0.848   3.836  19.419  0.00  0.00    +0.000 NA
BRANCH  22  23
ATOM     23  O1  UNL     1      -1.017   3.958  20.800  0.00  0.00    +0.000 OA
ATOM     24  H   UNL     1      -0.462   4.533  21.291  0.00  0.00    +0.000 HD
ENDBRANCH  22  23
ENDBRANCH   4  21
TORSDOF 6
ENDMDL
