MODEL 1
REMARK VINA RESULT:    -8.297      0.000      0.000
REMARK INTER + INTRA:         -12.747
REMARK INTER:                 -11.449
REMARK INTRA:                  -1.298
REMARK UNBOUND:                -1.298
REMARK  Name = laboratorio_evolutivo\Gen7_Mutante_6.pdb
REMARK  11 active torsions:
REMARK  status: ('A' for Active; 'I' for Inactive)
REMARK    1  A    between atoms: C1_1  and  C2_2
REMARK    2  A    between atoms: C2_2  and  C3_3
REMARK    3  A    between atoms: C5_5  and  C6_6
REMARK    4  A    between atoms: N1_7  and  O1_8
REMARK    5  A    between atoms: C7_9  and  C8_10
REMARK    6  A    between atoms: C11_13  and  C12_14
REMARK    7  A    between atoms: C13_15  and  C14_16
REMARK    8  A    between atoms: C14_16  and  C15_18
REMARK    9  A    between atoms: C15_18  and  C16_19
REMARK   10  A    between atoms: C16_19  and  C17_20
REMARK   11  A    between atoms: C16_19  and  C18_21
REMARK                            x       y       z     vdW  Elec       q    Type
REMARK                         _______ _______ _______ _____ _____    ______ ____
ROOT
ATOM      1  C3  UNL     1       4.741  65.342  68.511  0.00  0.00    +0.000 C 
ATOM      2  C4  UNL     1       3.479  65.900  68.376  0.00  0.00    +0.000 C 
ATOM      3  C5  UNL     1       3.207  66.692  67.257  0.00  0.00    +0.000 C 
ATOM      4  C7  UNL     1       4.185  66.904  66.277  0.00  0.00    +0.000 C 
ATOM      5  C19 UNL     1       5.421  66.307  66.522  0.00  0.00    +0.000 C 
ATOM      6  N2  UNL     1       5.715  65.540  67.596  0.00  0.00    +0.000 NA
ENDROOT
BRANCH   4   7
ATOM      7  C8  UNL     1       3.965  67.746  65.037  0.00  0.00    +0.000 C 
ATOM      8  C9  UNL     1       4.555  69.170  65.160  0.00  0.00    +0.000 C 
ATOM      9  C10 UNL     1       5.508  69.339  63.980  0.00  0.00    +0.000 C 
ATOM     10  C11 UNL     1       4.996  68.369  62.914  0.00  0.00    +0.000 C 
ATOM     11  C12 UNL     1       3.836  68.976  62.121  0.00  0.00    +0.000 C 
ATOM     12  C13 UNL     1       4.620  67.148  63.765  0.00  0.00    +0.000 C 
BRANCH  12  13
ATOM     13  C14 UNL     1       3.747  66.134  63.033  0.00  0.00    +0.000 C 
ATOM     14  O2  UNL     1       2.522  66.244  62.990  0.00  0.00    +0.000 OA
BRANCH  13  15
ATOM     15  C15 UNL     1       4.483  64.999  62.329  0.00  0.00    +0.000 C 
BRANCH  15  16
ATOM     16  C16 UNL     1       4.923  63.874  63.277  0.00  0.00    +0.000 C 
ATOM     17  C17 UNL     1       3.808  63.565  64.278  0.00  0.00    +0.000 C 
ATOM     18  C18 UNL     1       5.291  62.605  62.505  0.00  0.00    +0.000 C 
ENDBRANCH  15  16
ENDBRANCH  13  15
ENDBRANCH  12  13
ENDBRANCH   4   7
BRANCH   1  20
ATOM     19  C1  UNL     1       4.323  63.192  69.721  0.00  0.00    +0.000 C 
ATOM     20  C2  UNL     1       5.087  64.507  69.715  0.00  0.00    +0.000 C 
ENDBRANCH   1  20
BRANCH   3  21
ATOM     21  C6  UNL     1       1.843  67.245  67.121  0.00  0.00    +0.000 C 
ATOM     22  N1  UNL     1       1.391  68.375  67.582  0.00  0.00    +0.000 NA
BRANCH  22  23
ATOM     23  O1  UNL     1       2.385  69.134  68.207  0.00  0.00    +0.000 OA
ATOM     24  H   UNL     1       2.182  69.983  68.547  0.00  0.00    +0.000 HD
ENDBRANCH  22  23
ENDBRANCH   3  21
TORSDOF 7
ENDMDL
MODEL 2
REMARK VINA RESULT:    -8.008      2.153      4.016
REMARK INTER + INTRA:         -12.349
REMARK INTER:                 -11.068
REMARK INTRA:                  -1.281
REMARK UNBOUND:                -1.298
REMARK  Name = laboratorio_evolutivo\Gen7_Mutante_6.pdb
REMARK  11 active torsions:
REMARK  status: ('A' for Active; 'I' for Inactive)
REMARK    1  A    between atoms: C1_1  and  C2_2
REMARK    2  A    between atoms: C2_2  and  C3_3
REMARK    3  A    between atoms: C5_5  and  C6_6
REMARK    4  A    between atoms: N1_7  and  O1_8
REMARK    5  A    between atoms: C7_9  and  C8_10
REMARK    6  A    between atoms: C11_13  and  C12_14
REMARK    7  A    between atoms: C13_15  and  C14_16
REMARK    8  A    between atoms: C14_16  and  C15_18
REMARK    9  A    between atoms: C15_18  and  C16_19
REMARK   10  A    between atoms: C16_19  and  C17_20
REMARK   11  A    between atoms: C16_19  and  C18_21
REMARK                            x       y       z     vdW  Elec       q    Type
REMARK                         _______ _______ _______ _____ _____    ______ ____
ROOT
ATOM      1  C3  UNL     1       3.554  63.205  68.563  0.00  0.00    +0.000 C 
ATOM      2  C4  UNL     1       3.763  64.490  69.040  0.00  0.00    +0.000 C 
ATOM      3  C5  UNL     1       3.892  65.538  68.124  0.00  0.00    +0.000 C 
ATOM      4  C7  UNL     1       3.791  65.300  66.747  0.00  0.00    +0.000 C 
ATOM      5  C19 UNL     1       3.595  63.969  66.380  0.00  0.00    +0.000 C 
ATOM      6  N2  UNL     1       3.471  62.935  67.242  0.00  0.00    +0.000 NA
ENDROOT
BRANCH   4   7
ATOM      7  C8  UNL     1       3.917  66.382  65.695  0.00  0.00    +0.000 C 
ATOM      8  C9  UNL     1       5.011  66.082  64.646  0.00  0.00    +0.000 C 
ATOM      9  C10 UNL     1       4.320  66.129  63.284  0.00  0.00    +0.000 C 
ATOM     10  C11 UNL     1       3.107  67.037  63.487  0.00  0.00    +0.000 C 
ATOM     11  C12 UNL     1       3.496  68.515  63.391  0.00  0.00    +0.000 C 
ATOM     12  C13 UNL     1       2.619  66.593  64.874  0.00  0.00    +0.000 C 
BRANCH  12  13
ATOM     13  C14 UNL     1       1.626  67.558  65.514  0.00  0.00    +0.000 C 
ATOM     14  O2  UNL     1       1.996  68.488  66.230  0.00  0.00    +0.000 OA
BRANCH  13  15
ATOM     15  C15 UNL     1       0.156  67.325  65.186  0.00  0.00    +0.000 C 
BRANCH  15  16
ATOM     16  C16 UNL     1      -0.806  67.977  66.190  0.00  0.00    +0.000 C 
ATOM     17  C17 UNL     1      -2.060  68.474  65.467  0.00  0.00    +0.000 C 
ATOM     18  C18 UNL     1      -1.202  67.000  67.300  0.00  0.00    +0.000 C 
ENDBRANCH  15  16
ENDBRANCH  13  15
ENDBRANCH  12  13
ENDBRANCH   4   7
BRANCH   1  20
ATOM     19  C1  UNL     1       2.416  61.026  69.029  0.00  0.00    +0.000 C 
ATOM     20  C2  UNL     1       3.439  62.043  69.512  0.00  0.00    +0.000 C 
ENDBRANCH   1  20
BRANCH   3  21
ATOM     21  C6  UNL     1       4.079  66.902  68.662  0.00  0.00    +0.000 C 
ATOM     22  N1  UNL     1       3.159  67.750  69.023  0.00  0.00    +0.000 NA
BRANCH  22  23
ATOM     23  O1  UNL     1       1.871  67.215  68.928  0.00  0.00    +0.000 OA
ATOM     24  H   UNL     1       1.382  67.031  69.706  0.00  0.00    +0.000 HD
ENDBRANCH  22  23
ENDBRANCH   3  21
TORSDOF 7
ENDMDL
MODEL 3
REMARK VINA RESULT:    -7.939      2.510      4.401
REMARK INTER + INTRA:         -12.253
REMARK INTER:                 -11.783
REMARK INTRA:                  -0.470
REMARK UNBOUND:                -1.298
REMARK  Name = laboratorio_evolutivo\Gen7_Mutante_6.pdb
REMARK  11 active torsions:
REMARK  status: ('A' for Active; 'I' for Inactive)
REMARK    1  A    between atoms: C1_1  and  C2_2
REMARK    2  A    between atoms: C2_2  and  C3_3
REMARK    3  A    between atoms: C5_5  and  C6_6
REMARK    4  A    between atoms: N1_7  and  O1_8
REMARK    5  A    between atoms: C7_9  and  C8_10
REMARK    6  A    between atoms: C11_13  and  C12_14
REMARK    7  A    between atoms: C13_15  and  C14_16
REMARK    8  A    between atoms: C14_16  and  C15_18
REMARK    9  A    between atoms: C15_18  and  C16_19
REMARK   10  A    between atoms: C16_19  and  C17_20
REMARK   11  A    between atoms: C16_19  and  C18_21
REMARK                            x       y       z     vdW  Elec       q    Type
REMARK                         _______ _______ _______ _____ _____    ______ ____
ROOT
ATOM      1  C3  UNL     1       3.676  66.491  67.751  0.00  0.00    +0.000 C 
ATOM      2  C4  UNL     1       3.433  65.727  66.620  0.00  0.00    +0.000 C 
ATOM      3  C5  UNL     1       3.053  66.371  65.438  0.00  0.00    +0.000 C 
ATOM      4  C7  UNL     1       2.938  67.766  65.390  0.00  0.00    +0.000 C 
ATOM      5  C19 UNL     1       3.192  68.432  66.589  0.00  0.00    +0.000 C 
ATOM      6  N2  UNL     1       3.556  67.837  67.747  0.00  0.00    +0.000 NA
ENDROOT
BRANCH   4   7
ATOM      7  C8  UNL     1       2.535  68.535  64.149  0.00  0.00    +0.000 C 
ATOM      8  C9  UNL     1       3.700  68.728  63.152  0.00  0.00    +0.000 C 
ATOM      9  C10 UNL     1       3.222  68.148  61.822  0.00  0.00    +0.000 C 
ATOM     10  C11 UNL     1       1.697  68.238  61.876  0.00  0.00    +0.000 C 
ATOM     11  C12 UNL     1       1.208  69.637  61.492  0.00  0.00    +0.000 C 
ATOM     12  C13 UNL     1       1.416  67.840  63.333  0.00  0.00    +0.000 C 
BRANCH  12  13
ATOM     13  C14 UNL     1       0.003  68.174  63.800  0.00  0.00    +0.000 C 
ATOM     14  O2  UNL     1      -0.957  68.145  63.031  0.00  0.00    +0.000 OA
BRANCH  13  15
ATOM     15  C15 UNL     1      -0.154  68.509  65.279  0.00  0.00    +0.000 C 
BRANCH  15  16
ATOM     16  C16 UNL     1      -0.835  67.397  66.089  0.00  0.00    +0.000 C 
ATOM     17  C17 UNL     1      -0.153  67.247  67.451  0.00  0.00    +0.000 C 
ATOM     18  C18 UNL     1      -2.326  67.684  66.287  0.00  0.00    +0.000 C 
ENDBRANCH  15  16
ENDBRANCH  13  15
ENDBRANCH  12  13
ENDBRANCH   4   7
BRANCH   1  20
ATOM     19  C1  UNL     1       5.401  65.129  68.948  0.00  0.00    +0.000 C 
ATOM     20  C2  UNL     1       4.058  65.838  69.051  0.00  0.00    +0.000 C 
ENDBRANCH   1  20
BRANCH   3  21
ATOM     21  C6  UNL     1       2.835  65.535  64.239  0.00  0.00    +0.000 C 
ATOM     22  N1  UNL     1       3.730  65.077  63.412  0.00  0.00    +0.000 NA
BRANCH  22  23
ATOM     23  O1  UNL     1       5.034  65.395  63.806  0.00  0.00    +0.000 OA
ATOM     24  H   UNL     1       5.556  64.759  64.254  0.00  0.00    +0.000 HD
ENDBRANCH  22  23
ENDBRANCH   3  21
TORSDOF 7
ENDMDL
MODEL 4
REMARK VINA RESULT:    -7.617      5.027      9.210
REMARK INTER + INTRA:         -11.809
REMARK INTER:                 -10.930
REMARK INTRA:                  -0.879
REMARK UNBOUND:                -1.298
REMARK  Name = laboratorio_evolutivo\Gen7_Mutante_6.pdb
REMARK  11 active torsions:
REMARK  status: ('A' for Active; 'I' for Inactive)
REMARK    1  A    between atoms: C1_1  and  C2_2
REMARK    2  A    between atoms: C2_2  and  C3_3
REMARK    3  A    between atoms: C5_5  and  C6_6
REMARK    4  A    between atoms: N1_7  and  O1_8
REMARK    5  A    between atoms: C7_9  and  C8_10
REMARK    6  A    between atoms: C11_13  and  C12_14
REMARK    7  A    between atoms: C13_15  and  C14_16
REMARK    8  A    between atoms: C14_16  and  C15_18
REMARK    9  A    between atoms: C15_18  and  C16_19
REMARK   10  A    between atoms: C16_19  and  C17_20
REMARK   11  A    between atoms: C16_19  and  C18_21
REMARK                            x       y       z     vdW  Elec       q    Type
REMARK                         _______ _______ _______ _____ _____    ______ ____
ROOT
ATOM      1  C3  UNL     1       4.031  64.442  69.426  0.00  0.00    +0.000 C 
ATOM      2  C4  UNL     1       2.654  64.286  69.399  0.00  0.00    +0.000 C 
ATOM      3  C5  UNL     1       2.113  63.018  69.635  0.00  0.00    +0.000 C 
ATOM      4  C7  UNL     1       2.947  61.927  69.912  0.00  0.00    +0.000 C 
ATOM      5  C19 UNL     1       4.315  62.196  69.899  0.00  0.00    +0.000 C 
ATOM      6  N2  UNL     1       4.866  63.410  69.670  0.00  0.00    +0.000 NA
ENDROOT
BRANCH   4   7
ATOM      7  C8  UNL     1       2.438  60.525  70.180  0.00  0.00    +0.000 C 
ATOM      8  C9  UNL     1       3.118  59.455  69.295  0.00  0.00    +0.000 C 
ATOM      9  C10 UNL     1       3.712  58.426  70.253  0.00  0.00    +0.000 C 
ATOM     10  C11 UNL     1       2.868  58.534  71.524  0.00  0.00    +0.000 C 
ATOM     11  C12 UNL     1       1.569  57.734  71.400  0.00  0.00    +0.000 C 
ATOM     12  C13 UNL     1       2.676  60.054  71.637  0.00  0.00    +0.000 C 
BRANCH  12  13
ATOM     13  C14 UNL     1       1.577  60.464  72.612  0.00  0.00    +0.000 C 
ATOM     14  O2  UNL     1       1.836  60.979  73.699  0.00  0.00    +0.000 OA
BRANCH  13  15
ATOM     15  C15 UNL     1       0.144  60.230  72.147  0.00  0.00    +0.000 C 
BRANCH  15  16
ATOM     16  C16 UNL     1      -0.871  60.170  73.298  0.00  0.00    +0.000 C 
ATOM     17  C17 UNL     1      -2.121  60.975  72.936  0.00  0.00    +0.000 C 
ATOM     18  C18 UNL     1      -1.261  58.727  73.623  0.00  0.00    +0.000 C 
ENDBRANCH  15  16
ENDBRANCH  13  15
ENDBRANCH  12  13
ENDBRANCH   4   7
BRANCH   1  20
ATOM     19  C1  UNL     1       5.121  65.896  67.705  0.00  0.00    +0.000 C 
ATOM     20  C2  UNL     1       4.656  65.783  69.149  0.00  0.00    +0.000 C 
ENDBRANCH   1  20
BRANCH   3  21
ATOM     21  C6  UNL     1       0.641  62.887  69.636  0.00  0.00    +0.000 C 
ATOM     22  N1  UNL     1      -0.184  63.173  70.601  0.00  0.00    +0.000 NA
BRANCH  22  23
ATOM     23  O1  UNL     1       0.461  63.729  71.710  0.00  0.00    +0.000 OA
ATOM     24  H   UNL     1       1.278  63.375  72.002  0.00  0.00    +0.000 HD
ENDBRANCH  22  23
ENDBRANCH   3  21
TORSDOF 7
ENDMDL
MODEL 5
REMARK VINA RESULT:    -7.321      2.738      4.271
REMARK INTER + INTRA:         -11.400
REMARK INTER:                 -10.271
REMARK INTRA:                  -1.129
REMARK UNBOUND:                -1.298
REMARK  Name = laboratorio_evolutivo\Gen7_Mutante_6.pdb
REMARK  11 active torsions:
REMARK  status: ('A' for Active; 'I' for Inactive)
REMARK    1  A    between atoms: C1_1  and  C2_2
REMARK    2  A    between atoms: C2_2  and  C3_3
REMARK    3  A    between atoms: C5_5  and  C6_6
REMARK    4  A    between atoms: N1_7  and  O1_8
REMARK    5  A    between atoms: C7_9  and  C8_10
REMARK    6  A    between atoms: C11_13  and  C12_14
REMARK    7  A    between atoms: C13_15  and  C14_16
REMARK    8  A    between atoms: C14_16  and  C15_18
REMARK    9  A    between atoms: C15_18  and  C16_19
REMARK   10  A    between atoms: C16_19  and  C17_20
REMARK   11  A    between atoms: C16_19  and  C18_21
REMARK                            x       y       z     vdW  Elec       q    Type
REMARK                         _______ _______ _______ _____ _____    ______ ____
ROOT
ATOM      1  C3  UNL     1       4.692  62.099  70.518  0.00  0.00    +0.000 C 
ATOM      2  C4  UNL     1       3.347  62.098  70.182  0.00  0.00    +0.000 C 
ATOM      3  C5  UNL     1       2.832  63.174  69.453  0.00  0.00    +0.000 C 
ATOM      4  C7  UNL     1       3.663  64.227  69.050  0.00  0.00    +0.000 C 
ATOM      5  C19 UNL     1       4.994  64.131  69.455  0.00  0.00    +0.000 C 
ATOM      6  N2  UNL     1       5.519  63.107  70.163  0.00  0.00    +0.000 NA
ENDROOT
BRANCH   4   7
ATOM      7  C8  UNL     1       3.180  65.424  68.257  0.00  0.00    +0.000 C 
ATOM      8  C9  UNL     1       2.283  66.375  69.083  0.00  0.00    +0.000 C 
ATOM      9  C10 UNL     1       2.937  67.753  69.003  0.00  0.00    +0.000 C 
ATOM     10  C11 UNL     1       3.744  67.734  67.705  0.00  0.00    +0.000 C 
ATOM     11  C12 UNL     1       2.857  68.035  66.494  0.00  0.00    +0.000 C 
ATOM     12  C13 UNL     1       4.333  66.315  67.729  0.00  0.00    +0.000 C 
BRANCH  12  13
ATOM     13  C14 UNL     1       4.906  65.865  66.389  0.00  0.00    +0.000 C 
ATOM     14  O2  UNL     1       5.896  66.403  65.894  0.00  0.00    +0.000 OA
BRANCH  13  15
ATOM     15  C15 UNL     1       4.204  64.689  65.720  0.00  0.00    +0.000 C 
BRANCH  15  16
ATOM     16  C16 UNL     1       3.862  64.940  64.244  0.00  0.00    +0.000 C 
ATOM     17  C17 UNL     1       4.126  63.676  63.422  0.00  0.00    +0.000 C 
ATOM     18  C18 UNL     1       2.403  65.371  64.075  0.00  0.00    +0.000 C 
ENDBRANCH  15  16
ENDBRANCH  13  15
ENDBRANCH  12  13
ENDBRANCH   4   7
BRANCH   1  20
ATOM     19  C1  UNL     1       4.344  60.534  72.439  0.00  0.00    +0.000 C 
ATOM     20  C2  UNL     1       5.283  60.976  71.327  0.00  0.00    +0.000 C 
ENDBRANCH   1  20
BRANCH   3  21
ATOM     21  C6  UNL     1       1.403  63.130  69.079  0.00  0.00    +0.000 C 
ATOM     22  N1  UNL     1       0.373  63.398  69.830  0.00  0.00    +0.000 NA
BRANCH  22  23
ATOM     23  O1  UNL     1       0.741  63.839  71.104  0.00  0.00    +0.000 OA
ATOM     24  H   UNL     1       0.191  64.439  71.569  0.00  0.00    +0.000 HD
ENDBRANCH  22  23
ENDBRANCH   3  21
TORSDOF 7
ENDMDL
MODEL 6
REMARK VINA RESULT:    -7.016      5.234      9.448
REMARK INTER + INTRA:         -10.979
REMARK INTER:                 -10.764
REMARK INTRA:                  -0.216
REMARK UNBOUND:                -1.298
REMARK  Name = laboratorio_evolutivo\Gen7_Mutante_6.pdb
REMARK  11 active torsions:
REMARK  status: ('A' for Active; 'I' for Inactive)
REMARK    1  A    between atoms: C1_1  and  C2_2
REMARK    2  A    between atoms: C2_2  and  C3_3
REMARK    3  A    between atoms: C5_5  and  C6_6
REMARK    4  A    between atoms: N1_7  and  O1_8
REMARK    5  A    between atoms: C7_9  and  C8_10
REMARK    6  A    between atoms: C11_13  and  C12_14
REMARK    7  A    between atoms: C13_15  and  C14_16
REMARK    8  A    between atoms: C14_16  and  C15_18
REMARK    9  A    between atoms: C15_18  and  C16_19
REMARK   10  A    between atoms: C16_19  and  C17_20
REMARK   11  A    between atoms: C16_19  and  C18_21
REMARK                            x       y       z     vdW  Elec       q    Type
REMARK                         _______ _______ _______ _____ _____    ______ ____
ROOT
ATOM      1  C3  UNL     1       4.012  64.607  69.418  0.00  0.00    +0.000 C 
ATOM      2  C4  UNL     1       4.804  63.474  69.520  0.00  0.00    +0.000 C 
ATOM      3  C5  UNL     1       4.211  62.268  69.906  0.00  0.00    +0.000 C 
ATOM      4  C7  UNL     1       2.837  62.200  70.168  0.00  0.00    +0.000 C 
ATOM      5  C19 UNL     1       2.141  63.402  70.048  0.00  0.00    +0.000 C 
ATOM      6  N2  UNL     1       2.687  64.583  69.681  0.00  0.00    +0.000 NA
ENDROOT
BRANCH   4   7
ATOM      7  C8  UNL     1       2.122  60.932  70.588  0.00  0.00    +0.000 C 
ATOM      8  C9  UNL     1       2.165  59.827  69.507  0.00  0.00    +0.000 C 
ATOM      9  C10 UNL     1       2.780  58.600  70.176  0.00  0.00    +0.000 C 
ATOM     10  C11 UNL     1       2.486  58.773  71.667  0.00  0.00    +0.000 C 
ATOM     11  C12 UNL     1       1.069  58.306  72.012  0.00  0.00    +0.000 C 
ATOM     12  C13 UNL     1       2.727  60.278  71.856  0.00  0.00    +0.000 C 
BRANCH  12  13
ATOM     13  C14 UNL     1       2.174  60.829  73.166  0.00  0.00    +0.000 C 
ATOM     14  O2  UNL     1       2.423  60.299  74.248  0.00  0.00    +0.000 OA
BRANCH  13  15
ATOM     15  C15 UNL     1       1.326  62.092  73.059  0.00  0.00    +0.000 C 
BRANCH  15  16
ATOM     16  C16 UNL     1      -0.150  61.871  73.418  0.00  0.00    +0.000 C 
ATOM     17  C17 UNL     1      -0.670  63.047  74.247  0.00  0.00    +0.000 C 
ATOM     18  C18 UNL     1      -1.011  61.701  72.164  0.00  0.00    +0.000 C 
ENDBRANCH  15  16
ENDBRANCH  13  15
ENDBRANCH  12  13
ENDBRANCH   4   7
BRANCH   1  20
ATOM     19  C1  UNL     1       3.540  66.965  68.722  0.00  0.00    +0.000 C 
ATOM     20  C2  UNL     1       4.613  65.933  69.034  0.00  0.00    +0.000 C 
ENDBRANCH   1  20
BRANCH   3  21
ATOM     21  C6  UNL     1       5.073  61.069  69.972  0.00  0.00    +0.000 C 
ATOM     22  N1  UNL     1       5.804  60.667  70.971  0.00  0.00    +0.000 NA
BRANCH  22  23
ATOM     23  O1  UNL     1       5.655  61.474  72.103  0.00  0.00    +0.000 OA
ATOM     24  H   UNL     1       6.113  61.263  72.893  0.00  0.00    +0.000 HD
ENDBRANCH  22  23
ENDBRANCH   3  21
TORSDOF 7
ENDMDL
MODEL 7
REMARK VINA RESULT:    -6.664      6.151      9.299
REMARK INTER + INTRA:         -10.494
REMARK INTER:                  -9.433
REMARK INTRA:                  -1.061
REMARK UNBOUND:                -1.298
REMARK  Name = laboratorio_evolutivo\Gen7_Mutante_6.pdb
REMARK  11 active torsions:
REMARK  status: ('A' for Active; 'I' for Inactive)
REMARK    1  A    between atoms: C1_1  and  C2_2
REMARK    2  A    between atoms: C2_2  and  C3_3
REMARK    3  A    between atoms: C5_5  and  C6_6
REMARK    4  A    between atoms: N1_7  and  O1_8
REMARK    5  A    between atoms: C7_9  and  C8_10
REMARK    6  A    between atoms: C11_13  and  C12_14
REMARK    7  A    between atoms: C13_15  and  C14_16
REMARK    8  A    between atoms: C14_16  and  C15_18
REMARK    9  A    between atoms: C15_18  and  C16_19
REMARK   10  A    between atoms: C16_19  and  C17_20
REMARK   11  A    between atoms: C16_19  and  C18_21
REMARK                            x       y       z     vdW  Elec       q    Type
REMARK                         _______ _______ _______ _____ _____    ______ ____
ROOT
ATOM      1  C3  UNL     1       0.085  58.030  73.113  0.00  0.00    +0.000 C 
ATOM      2  C4  UNL     1       0.068  59.277  73.718  0.00  0.00    +0.000 C 
ATOM      3  C5  UNL     1       0.996  60.240  73.308  0.00  0.00    +0.000 C 
ATOM      4  C7  UNL     1       1.914  59.957  72.289  0.00  0.00    +0.000 C 
ATOM      5  C19 UNL     1       1.850  58.668  71.762  0.00  0.00    +0.000 C 
ATOM      6  N2  UNL     1       0.968  57.716  72.141  0.00  0.00    +0.000 NA
ENDROOT
BRANCH   4   7
ATOM      7  C8  UNL     1       2.946  60.947  71.787  0.00  0.00    +0.000 C 
ATOM      8  C9  UNL     1       4.360  60.686  72.357  0.00  0.00    +0.000 C 
ATOM      9  C10 UNL     1       5.281  60.526  71.150  0.00  0.00    +0.000 C 
ATOM     10  C11 UNL     1       4.594  61.296  70.021  0.00  0.00    +0.000 C 
ATOM     11  C12 UNL     1       4.893  62.794  70.107  0.00  0.00    +0.000 C 
ATOM     12  C13 UNL     1       3.121  60.924  70.248  0.00  0.00    +0.000 C 
BRANCH  12  13
ATOM     13  C14 UNL     1       2.139  61.816  69.495  0.00  0.00    +0.000 C 
ATOM     14  O2  UNL     1       2.039  61.778  68.269  0.00  0.00    +0.000 OA
BRANCH  13  15
ATOM     15  C15 UNL     1       1.267  62.727  70.352  0.00  0.00    +0.000 C 
BRANCH  15  16
ATOM     16  C16 UNL     1       1.036  64.113  69.731  0.00  0.00    +0.000 C 
ATOM     17  C17 UNL     1       0.197  64.976  70.676  0.00  0.00    +0.000 C 
ATOM     18  C18 UNL     1       2.361  64.816  69.427  0.00  0.00    +0.000 C 
ENDBRANCH  15  16
ENDBRANCH  13  15
ENDBRANCH  12  13
ENDBRANCH   4   7
BRANCH   1  20
ATOM     19  C1  UNL     1      -0.355  55.568  73.199  0.00  0.00    +0.000 C 
ATOM     20  C2  UNL     1      -0.876  56.955  73.545  0.00  0.00    +0.000 C 
ENDBRANCH   1  20
BRANCH   3  21
ATOM     21  C6  UNL     1       0.932  61.572  73.945  0.00  0.00    +0.000 C 
ATOM     22  N1  UNL     1       0.056  62.512  73.741  0.00  0.00    +0.000 NA
BRANCH  22  23
ATOM     23  O1  UNL     1      -0.953  62.121  72.855  0.00  0.00    +0.000 OA
ATOM     24  H   UNL     1      -1.843  62.081  73.146  0.00  0.00    +0.000 HD
ENDBRANCH  22  23
ENDBRANCH   3  21
TORSDOF 7
ENDMDL
MODEL 8
REMARK VINA RESULT:    -6.643      4.971      9.589
REMARK INTER + INTRA:         -10.465
REMARK INTER:                 -10.181
REMARK INTRA:                  -0.284
REMARK UNBOUND:                -1.298
REMARK  Name = laboratorio_evolutivo\Gen7_Mutante_6.pdb
REMARK  11 active torsions:
REMARK  status: ('A' for Active; 'I' for Inactive)
REMARK    1  A    between atoms: C1_1  and  C2_2
REMARK    2  A    between atoms: C2_2  and  C3_3
REMARK    3  A    between atoms: C5_5  and  C6_6
REMARK    4  A    between atoms: N1_7  and  O1_8
REMARK    5  A    between atoms: C7_9  and  C8_10
REMARK    6  A    between atoms: C11_13  and  C12_14
REMARK    7  A    between atoms: C13_15  and  C14_16
REMARK    8  A    between atoms: C14_16  and  C15_18
REMARK    9  A    between atoms: C15_18  and  C16_19
REMARK   10  A    between atoms: C16_19  and  C17_20
REMARK   11  A    between atoms: C16_19  and  C18_21
REMARK                            x       y       z     vdW  Elec       q    Type
REMARK                         _______ _______ _______ _____ _____    ______ ____
ROOT
ATOM      1  C3  UNL     1       4.487  64.484  69.034  0.00  0.00    +0.000 C 
ATOM      2  C4  UNL     1       4.905  63.467  69.877  0.00  0.00    +0.000 C 
ATOM      3  C5  UNL     1       3.944  62.628  70.451  0.00  0.00    +0.000 C 
ATOM      4  C7  UNL     1       2.584  62.799  70.163  0.00  0.00    +0.000 C 
ATOM      5  C19 UNL     1       2.278  63.862  69.314  0.00  0.00    +0.000 C 
ATOM      6  N2  UNL     1       3.184  64.691  68.749  0.00  0.00    +0.000 NA
ENDROOT
BRANCH   4   7
ATOM      7  C8  UNL     1       1.486  61.930  70.742  0.00  0.00    +0.000 C 
ATOM      8  C9  UNL     1       1.620  60.442  70.346  0.00  0.00    +0.000 C 
ATOM      9  C10 UNL     1       1.659  59.656  71.654  0.00  0.00    +0.000 C 
ATOM     10  C11 UNL     1       0.933  60.539  72.669  0.00  0.00    +0.000 C 
ATOM     11  C12 UNL     1      -0.586  60.375  72.564  0.00  0.00    +0.000 C 
ATOM     12  C13 UNL     1       1.453  61.934  72.291  0.00  0.00    +0.000 C 
BRANCH  12  13
ATOM     13  C14 UNL     1       0.643  63.076  72.896  0.00  0.00    +0.000 C 
ATOM     14  O2  UNL     1      -0.234  63.657  72.257  0.00  0.00    +0.000 OA
BRANCH  13  15
ATOM     15  C15 UNL     1       0.960  63.431  74.344  0.00  0.00    +0.000 C 
BRANCH  15  16
ATOM     16  C16 UNL     1       0.148  62.621  75.364  0.00  0.00    +0.000 C 
ATOM     17  C17 UNL     1       0.801  62.710  76.745  0.00  0.00    +0.000 C 
ATOM     18  C18 UNL     1      -1.299  63.114  75.444  0.00  0.00    +0.000 C 
ENDBRANCH  15  16
ENDBRANCH  13  15
ENDBRANCH  12  13
ENDBRANCH   4   7
BRANCH   1  20
ATOM     19  C1  UNL     1       4.830  66.345  67.396  0.00  0.00    +0.000 C 
ATOM     20  C2  UNL     1       5.485  65.429  68.418  0.00  0.00    +0.000 C 
ENDBRANCH   1  20
BRANCH   3  21
ATOM     21  C6  UNL     1       4.420  61.530  71.318  0.00  0.00    +0.000 C 
ATOM     22  N1  UNL     1       4.926  60.387  70.953  0.00  0.00    +0.000 NA
BRANCH  22  23
ATOM     23  O1  UNL     1       5.071  60.285  69.566  0.00  0.00    +0.000 OA
ATOM     24  H   UNL     1       4.318  60.144  69.025  0.00  0.00    +0.000 HD
ENDBRANCH  22  23
ENDBRANCH   3  21
TORSDOF 7
ENDMDL
MODEL 9
REMARK VINA RESULT:    -6.427     19.053     21.912
REMARK INTER + INTRA:         -10.167
REMARK INTER:                  -8.575
REMARK INTRA:                  -1.592
REMARK UNBOUND:                -1.298
REMARK  Name = laboratorio_evolutivo\Gen7_Mutante_6.pdb
REMARK  11 active torsions:
REMARK  status: ('A' for Active; 'I' for Inactive)
REMARK    1  A    between atoms: C1_1  and  C2_2
REMARK    2  A    between atoms: C2_2  and  C3_3
REMARK    3  A    between atoms: C5_5  and  C6_6
REMARK    4  A    between atoms: N1_7  and  O1_8
REMARK    5  A    between atoms: C7_9  and  C8_10
REMARK    6  A    between atoms: C11_13  and  C12_14
REMARK    7  A    between atoms: C13_15  and  C14_16
REMARK    8  A    between atoms: C14_16  and  C15_18
REMARK    9  A    between atoms: C15_18  and  C16_19
REMARK   10  A    between atoms: C16_19  and  C17_20
REMARK   11  A    between atoms: C16_19  and  C18_21
REMARK                            x       y       z     vdW  Elec       q    Type
REMARK                         _______ _______ _______ _____ _____    ______ ____
ROOT
ATOM      1  C3  UNL     1      12.312  48.802  55.376  0.00  0.00    +0.000 C 
ATOM      2  C4  UNL     1      13.677  48.802  55.134  0.00  0.00    +0.000 C 
ATOM      3  C5  UNL     1      14.522  49.468  56.027  0.00  0.00    +0.000 C 
ATOM      4  C7  UNL     1      14.002  50.108  57.160  0.00  0.00    +0.000 C 
ATOM      5  C19 UNL     1      12.615  50.057  57.295  0.00  0.00    +0.000 C 
ATOM      6  N2  UNL     1      11.773  49.425  56.446  0.00  0.00    +0.000 NA
ENDROOT
BRANCH   4   7
ATOM      7  C8  UNL     1      14.851  50.846  58.174  0.00  0.00    +0.000 C 
ATOM      8  C9  UNL     1      14.620  52.375  58.157  0.00  0.00    +0.000 C 
ATOM      9  C10 UNL     1      14.229  52.761  59.582  0.00  0.00    +0.000 C 
ATOM     10  C11 UNL     1      14.840  51.676  60.469  0.00  0.00    +0.000 C 
ATOM     11  C12 UNL     1      16.318  51.956  60.752  0.00  0.00    +0.000 C 
ATOM     12  C13 UNL     1      14.577  50.413  59.636  0.00  0.00    +0.000 C 
BRANCH  12  13
ATOM     13  C14 UNL     1      15.382  49.199  60.088  0.00  0.00    +0.000 C 
ATOM     14  O2  UNL     1      16.367  48.806  59.465  0.00  0.00    +0.000 OA
BRANCH  13  15
ATOM     15  C15 UNL     1      14.916  48.525  61.374  0.00  0.00    +0.000 C 
BRANCH  15  16
ATOM     16  C16 UNL     1      16.014  48.420  62.442  0.00  0.00    +0.000 C 
ATOM     17  C17 UNL     1      15.932  49.612  63.398  0.00  0.00    +0.000 C 
ATOM     18  C18 UNL     1      15.900  47.114  63.233  0.00  0.00    +0.000 C 
ENDBRANCH  15  16
ENDBRANCH  13  15
ENDBRANCH  12  13
ENDBRANCH   4   7
BRANCH   1  20
ATOM     19  C1  UNL     1      11.025  46.714  54.884  0.00  0.00    +0.000 C 
ATOM     20  C2  UNL     1      11.364  48.124  54.425  0.00  0.00    +0.000 C 
ENDBRANCH   1  20
BRANCH   3  21
ATOM     21  C6  UNL     1      15.976  49.422  55.764  0.00  0.00    +0.000 C 
ATOM     22  N1  UNL     1      16.829  48.522  56.160  0.00  0.00    +0.000 NA
BRANCH  22  23
ATOM     23  O1  UNL     1      16.218  47.472  56.851  0.00  0.00    +0.000 OA
ATOM     24  H   UNL     1      15.303  47.511  57.049  0.00  0.00    +0.000 HD
ENDBRANCH  22  23
ENDBRANCH   3  21
TORSDOF 7
ENDMDL
