REMARK  Name = laboratorio_evolutivo\Gen8_Mutante_4.pdb
REMARK  7 active torsions:
REMARK  status: ('A' for Active; 'I' for Inactive)
REMARK    1  A    between atoms: C3_3  and  C4_4
REMARK    2  A    between atoms: C8_10  and  C9_11
REMARK    3  A    between atoms: C12_14  and  C13_15
REMARK    4  A    between atoms: C14_16  and  C15_17
REMARK    5  A    between atoms: C15_17  and  C16_19
REMARK    6  A    between atoms: C16_19  and  C17_20
REMARK    7  A    between atoms: C18_21  and  C19_22
REMARK                            x       y       z     vdW  Elec       q    Type
REMARK                         _______ _______ _______ _____ _____    ______ ____
ROOT
ATOM      1  C9  UNL     1      -0.914   0.683   1.094  0.00  0.00    +0.000 C 
ATOM      2  C10 UNL     1      -1.156   0.491   2.605  0.00  0.00    +0.000 C 
ATOM      3  C11 UNL     1       0.046   1.134   3.307  0.00  0.00    +0.000 C 
ATOM      4  C12 UNL     1       0.990   1.606   2.196  0.00  0.00    +0.000 C 
ATOM      5  C13 UNL     1       2.457   1.596   2.599  0.00  0.00    +0.000 C 
ATOM      6  C14 UNL     1       0.623   0.757   0.967  0.00  0.00    +0.000 C 
ENDROOT
BRANCH   1  13
ATOM      7  C4  UNL     1      -1.966   0.143  -1.189  0.00  0.00    +0.000 C 
ATOM      8  C5  UNL     1      -2.585  -0.795  -2.026  0.00  0.00    +0.000 C 
ATOM      9  C6  UNL     1      -2.818  -2.071  -1.555  0.00  0.00    +0.000 C 
ATOM     10  F1  UNL     1      -3.407  -2.956  -2.372  0.00  0.00    +0.000 F 
ATOM     11  N1  UNL     1      -2.478  -2.489  -0.327  0.00  0.00    +0.000 NA
ATOM     12  C7  UNL     1      -1.882  -1.579   0.473  0.00  0.00    +0.000 C 
ATOM     13  C8  UNL     1      -1.601  -0.254   0.119  0.00  0.00    +0.000 C 
BRANCH   7  16
ATOM     14  C1  UNL     1      -2.990   2.615  -3.669  0.00  0.00    +0.000 C 
ATOM     15  C2  UNL     1      -2.345   2.049  -2.695  0.00  0.00    +0.000 C 
ATOM     16  C3  UNL     1      -1.695   1.497  -1.711  0.00  0.00    +0.000 C 
ENDBRANCH   7  16
ENDBRANCH   1  13
BRANCH   6  17
ATOM     17  C15 UNL     1       1.269  -0.632   0.957  0.00  0.00    +0.000 C 
ATOM     18  O1  UNL     1       1.227  -1.383   1.930  0.00  0.00    +0.000 OA
BRANCH  17  19
ATOM     19  C16 UNL     1       1.913  -1.089  -0.320  0.00  0.00    +0.000 C 
ATOM     20  C17 UNL     1       2.900  -0.169  -0.961  0.00  0.00    +0.000 C 
ATOM     21  C18 UNL     1       1.581  -2.322  -0.745  0.00  0.00    +0.000 C 
ATOM     22  C19 UNL     1       2.067  -3.008  -1.981  0.00  0.00    +0.000 C 
ENDBRANCH  17  19
ENDBRANCH   6  17
TORSDOF 4
