REMARK  Name = laboratorio_evolutivo\Gen8_Mut_2.pdb
REMARK  9 active torsions:
REMARK  status: ('A' for Active; 'I' for Inactive)
REMARK    1  A    between atoms: C1_1  and  C2_2
REMARK    2  A    between atoms: C2_2  and  C3_3
REMARK    3  A    between atoms: C2_2  and  C4_4
REMARK    4  A    between atoms: C4_4  and  C5_5
REMARK    5  A    between atoms: C5_5  and  C6_7
REMARK    6  A    between atoms: C7_8  and  C8_9
REMARK    7  A    between atoms: C11_12  and  C12_13
REMARK    8  A    between atoms: C13_14  and  C14_15
REMARK    9  A    between atoms: N1_16  and  O2_17
REMARK                            x       y       z     vdW  Elec       q    Type
REMARK                         _______ _______ _______ _____ _____    ______ ____
ROOT
ATOM      1  C6  UNL     1       0.153   1.081  -0.464  0.00  0.00    +0.000 C 
ATOM      2  C7  UNL     1      -0.025   2.581  -0.232  0.00  0.00    +0.000 C 
ATOM      3  C8  UNL     1      -0.976   3.210  -1.198  0.00  0.00    +0.000 C 
ATOM      4  C9  UNL     1       1.402   3.139  -0.380  0.00  0.00    +0.000 C 
ATOM      5  C10 UNL     1       2.117   1.993   0.379  0.00  0.00    +0.000 C 
ATOM      6  C11 UNL     1       1.639   0.862  -0.496  0.00  0.00    +0.000 C 
ENDROOT
BRANCH   6   7
ATOM      7  C12 UNL     1       2.104  -0.475  -0.141  0.00  0.00    +0.000 C 
ATOM      8  C13 UNL     1       1.944  -1.594  -0.995  0.00  0.00    +0.000 C 
ATOM      9  C15 UNL     1       2.399  -2.798  -0.498  0.00  0.00    +0.000 C 
ATOM     10  C16 UNL     1       2.979  -2.953   0.742  0.00  0.00    +0.000 C 
ATOM     11  N2  UNL     1       3.119  -1.881   1.524  0.00  0.00    +0.000 NA
ATOM     12  C17 UNL     1       2.692  -0.653   1.103  0.00  0.00    +0.000 C 
ATOM     13  F1  UNL     1       2.896   0.352   1.981  0.00  0.00    +0.000 F 
BRANCH   8  14
ATOM     14  C14 UNL     1       1.383  -1.430  -2.318  0.00  0.00    +0.000 C 
ATOM     15  N1  UNL     1       1.134  -2.289  -3.199  0.00  0.00    +0.000 NA
BRANCH  15  16
ATOM     16  O2  UNL     1       1.358  -3.609  -3.070  0.00  0.00    +0.000 OA
ATOM     17  H   UNL     1       1.146  -4.191  -3.773  0.00  0.00    +0.000 HD
ENDBRANCH  15  16
ENDBRANCH   8  14
ENDBRANCH   6   7
BRANCH   1  18
ATOM     18  C5  UNL     1      -0.584   0.271   0.508  0.00  0.00    +0.000 C 
ATOM     19  O1  UNL     1      -0.034  -0.501   1.274  0.00  0.00    +0.000 OA
BRANCH  18  20
ATOM     20  C4  UNL     1      -2.051   0.379   0.576  0.00  0.00    +0.000 C 
BRANCH  20  22
ATOM     21  C1  UNL     1      -4.150  -0.319   1.602  0.00  0.00    +0.000 C 
ATOM     22  C2  UNL     1      -2.632  -0.515   1.628  0.00  0.00    +0.000 C 
ATOM     23  C3  UNL     1      -2.348  -1.980   1.426  0.00  0.00    +0.000 C 
ENDBRANCH  20  22
ENDBRANCH  18  20
ENDBRANCH   1  18
TORSDOF 6
