REMARK  Name = laboratorio_evolutivo\Gen8_Mutante_9.pdb
REMARK  10 active torsions:
REMARK  status: ('A' for Active; 'I' for Inactive)
REMARK    1  A    between atoms: C1_1  and  C2_2
REMARK    2  A    between atoms: C5_7  and  C6_8
REMARK    3  A    between atoms: N2_9  and  O1_10
REMARK    4  A    between atoms: C7_11  and  C8_12
REMARK    5  A    between atoms: C11_15  and  C12_16
REMARK    6  A    between atoms: C13_17  and  C14_18
REMARK    7  A    between atoms: C14_18  and  C15_20
REMARK    8  A    between atoms: C15_20  and  C16_21
REMARK    9  A    between atoms: C16_21  and  C17_22
REMARK   10  A    between atoms: C16_21  and  C18_23
REMARK                            x       y       z     vdW  Elec       q    Type
REMARK                         _______ _______ _______ _____ _____    ______ ____
ROOT
ATOM      1  C1  UNL     1      -2.075  -0.885  -2.165  0.00  0.00    +0.000 C 
ATOM      2  C2  UNL     1      -2.043   0.460  -1.493  0.00  0.00    +0.000 C 
ATOM      3  N1  UNL     1      -2.502   1.472  -2.273  0.00  0.00    +0.000 NA
ATOM      4  C3  UNL     1      -2.544   2.709  -1.752  0.00  0.00    +0.000 C 
ATOM      5  F1  UNL     1      -2.997   3.698  -2.535  0.00  0.00    +0.000 F 
ATOM      6  C4  UNL     1      -2.134   3.011  -0.481  0.00  0.00    +0.000 C 
ATOM      7  C5  UNL     1      -1.659   1.969   0.315  0.00  0.00    +0.000 C 
ATOM      8  C7  UNL     1      -1.593   0.645  -0.170  0.00  0.00    +0.000 C 
ENDROOT
BRANCH   8   9
ATOM      9  C8  UNL     1      -1.101  -0.539   0.650  0.00  0.00    +0.000 C 
ATOM     10  C9  UNL     1      -1.854  -0.789   1.968  0.00  0.00    +0.000 C 
ATOM     11  C10 UNL     1      -0.844  -1.538   2.824  0.00  0.00    +0.000 C 
ATOM     12  C11 UNL     1       0.463  -0.803   2.533  0.00  0.00    +0.000 C 
ATOM     13  C12 UNL     1       1.686  -1.549   3.047  0.00  0.00    +0.000 C 
ATOM     14  C13 UNL     1       0.410  -0.510   1.016  0.00  0.00    +0.000 C 
BRANCH  14  15
ATOM     15  C14 UNL     1       1.195  -1.526   0.182  0.00  0.00    +0.000 C 
ATOM     16  O2  UNL     1       0.781  -2.668  -0.019  0.00  0.00    +0.000 OA
BRANCH  15  17
ATOM     17  C15 UNL     1       2.525  -1.067  -0.390  0.00  0.00    +0.000 C 
BRANCH  17  18
ATOM     18  C16 UNL     1       2.343  -0.303  -1.707  0.00  0.00    +0.000 C 
ATOM     19  C17 UNL     1       2.083  -1.262  -2.871  0.00  0.00    +0.000 C 
ATOM     20  C18 UNL     1       3.581   0.544  -2.002  0.00  0.00    +0.000 C 
ENDBRANCH  17  18
ENDBRANCH  15  17
ENDBRANCH  14  15
ENDBRANCH   8   9
BRANCH   7  21
ATOM     21  C6  UNL     1      -1.172   2.362   1.652  0.00  0.00    +0.000 C 
ATOM     22  N2  UNL     1      -1.840   2.963   2.591  0.00  0.00    +0.000 NA
BRANCH  22  23
ATOM     23  O1  UNL     1      -3.180   3.158   2.241  0.00  0.00    +0.000 OA
ATOM     24  H   UNL     1      -3.763   3.582   2.839  0.00  0.00    +0.000 HD
ENDBRANCH  22  23
ENDBRANCH   7  21
TORSDOF 6
