REMARK  Name = laboratorio_evolutivo\Gen8_Mutante_3.pdb
REMARK  9 active torsions:
REMARK  status: ('A' for Active; 'I' for Inactive)
REMARK    1  A    between atoms: C1_1  and  C2_2
REMARK    2  A    between atoms: C2_2  and  C3_4
REMARK    3  A    between atoms: C7_10  and  C8_11
REMARK    4  A    between atoms: C11_14  and  C12_15
REMARK    5  A    between atoms: C13_16  and  C14_17
REMARK    6  A    between atoms: C14_17  and  C15_19
REMARK    7  A    between atoms: C15_19  and  C16_20
REMARK    8  A    between atoms: C16_20  and  C17_21
REMARK    9  A    between atoms: C16_20  and  C18_22
REMARK                            x       y       z     vdW  Elec       q    Type
REMARK                         _______ _______ _______ _____ _____    ______ ____
ROOT
ATOM      1  C8  UNL     1      -0.929   1.027   0.715  0.00  0.00    +0.000 C 
ATOM      2  C9  UNL     1      -0.994   2.524   1.061  0.00  0.00    +0.000 C 
ATOM      3  C10 UNL     1       0.276   3.077   0.431  0.00  0.00    +0.000 C 
ATOM      4  C11 UNL     1       0.349   2.378  -0.929  0.00  0.00    +0.000 C 
ATOM      5  C12 UNL     1      -0.411   3.163  -2.002  0.00  0.00    +0.000 C 
ATOM      6  C13 UNL     1      -0.291   0.990  -0.695  0.00  0.00    +0.000 C 
ENDROOT
BRANCH   1  13
ATOM      7  C3  UNL     1      -2.269  -1.148   1.070  0.00  0.00    +0.000 C 
ATOM      8  C4  UNL     1      -3.492  -1.825   1.095  0.00  0.00    +0.000 C 
ATOM      9  C5  UNL     1      -4.636  -1.110   0.828  0.00  0.00    +0.000 C 
ATOM     10  F1  UNL     1      -5.812  -1.752   0.854  0.00  0.00    +0.000 F 
ATOM     11  N1  UNL     1      -4.648   0.200   0.536  0.00  0.00    +0.000 NA
ATOM     12  C6  UNL     1      -3.453   0.833   0.524  0.00  0.00    +0.000 C 
ATOM     13  C7  UNL     1      -2.222   0.236   0.797  0.00  0.00    +0.000 C 
BRANCH   7  15
ATOM     14  C1  UNL     1      -0.927  -3.313   0.719  0.00  0.00    +0.000 C 
ATOM     15  C2  UNL     1      -1.051  -1.955   1.363  0.00  0.00    +0.000 C 
ATOM     16  O1  UNL     1      -0.200  -1.530   2.139  0.00  0.00    +0.000 OA
ENDBRANCH   7  15
ENDBRANCH   1  13
BRANCH   6  17
ATOM     17  C14 UNL     1       0.687  -0.179  -0.828  0.00  0.00    +0.000 C 
ATOM     18  O2  UNL     1       0.332  -1.185  -1.449  0.00  0.00    +0.000 OA
BRANCH  17  19
ATOM     19  C15 UNL     1       2.047  -0.091  -0.137  0.00  0.00    +0.000 C 
BRANCH  19  20
ATOM     20  C16 UNL     1       2.852  -1.401  -0.189  0.00  0.00    +0.000 C 
ATOM     21  C17 UNL     1       3.487  -1.614  -1.566  0.00  0.00    +0.000 C 
ATOM     22  C18 UNL     1       3.945  -1.388   0.883  0.00  0.00    +0.000 C 
ENDBRANCH  19  20
ENDBRANCH  17  19
ENDBRANCH   6  17
TORSDOF 5
