REMARK  Name = laboratorio_evolutivo\Gen8_Mutante_2.pdb
REMARK  11 active torsions:
REMARK  status: ('A' for Active; 'I' for Inactive)
REMARK    1  A    between atoms: C1_1  and  C2_2
REMARK    2  A    between atoms: C2_2  and  C3_3
REMARK    3  A    between atoms: C6_7  and  C7_8
REMARK    4  A    between atoms: N2_9  and  O1_10
REMARK    5  A    between atoms: C8_11  and  C9_12
REMARK    6  A    between atoms: C12_15  and  C13_16
REMARK    7  A    between atoms: C14_17  and  C15_18
REMARK    8  A    between atoms: C15_18  and  C16_20
REMARK    9  A    between atoms: C16_20  and  C17_21
REMARK   10  A    between atoms: C17_21  and  C18_22
REMARK   11  A    between atoms: C17_21  and  C19_23
REMARK                            x       y       z     vdW  Elec       q    Type
REMARK                         _______ _______ _______ _____ _____    ______ ____
ROOT
ATOM      1  C3  UNL     1      -2.252  -1.026   0.358  0.00  0.00    +0.000 C 
ATOM      2  N1  UNL     1      -3.293  -0.844   1.214  0.00  0.00    +0.000 NA
ATOM      3  C4  UNL     1      -3.773   0.396   1.405  0.00  0.00    +0.000 C 
ATOM      4  C5  UNL     1      -3.270   1.501   0.764  0.00  0.00    +0.000 C 
ATOM      5  C6  UNL     1      -2.202   1.315  -0.113  0.00  0.00    +0.000 C 
ATOM      6  C8  UNL     1      -1.645   0.039  -0.344  0.00  0.00    +0.000 C 
ENDROOT
BRANCH   6   7
ATOM      7  C9  UNL     1      -0.454  -0.212  -1.254  0.00  0.00    +0.000 C 
ATOM      8  C10 UNL     1      -0.741  -0.060  -2.750  0.00  0.00    +0.000 C 
ATOM      9  C11 UNL     1       0.653  -0.036  -3.359  0.00  0.00    +0.000 C 
ATOM     10  C12 UNL     1       1.495   0.797  -2.383  0.00  0.00    +0.000 C 
ATOM     11  C13 UNL     1       1.547   2.265  -2.808  0.00  0.00    +0.000 C 
ATOM     12  C14 UNL     1       0.816   0.633  -1.001  0.00  0.00    +0.000 C 
BRANCH  12  13
ATOM     13  C15 UNL     1       1.709  -0.096   0.002  0.00  0.00    +0.000 C 
ATOM     14  O2  UNL     1       2.410  -1.045  -0.345  0.00  0.00    +0.000 OA
BRANCH  13  15
ATOM     15  C16 UNL     1       1.636   0.405   1.441  0.00  0.00    +0.000 C 
BRANCH  15  16
ATOM     16  C17 UNL     1       2.356  -0.432   2.509  0.00  0.00    +0.000 C 
ATOM     17  C18 UNL     1       3.873  -0.455   2.323  0.00  0.00    +0.000 C 
ATOM     18  C19 UNL     1       1.788  -1.846   2.629  0.00  0.00    +0.000 C 
ENDBRANCH  15  16
ENDBRANCH  13  15
ENDBRANCH  12  13
ENDBRANCH   6   7
BRANCH   1  20
ATOM     19  C1  UNL     1      -2.590  -3.497   0.981  0.00  0.00    +0.000 C 
ATOM     20  C2  UNL     1      -1.773  -2.459   0.217  0.00  0.00    +0.000 C 
ENDBRANCH   1  20
BRANCH   5  21
ATOM     21  C7  UNL     1      -1.748   2.533  -0.809  0.00  0.00    +0.000 C 
ATOM     22  N2  UNL     1      -1.178   3.571  -0.272  0.00  0.00    +0.000 NA
BRANCH  22  23
ATOM     23  O1  UNL     1      -0.962   3.398   1.100  0.00  0.00    +0.000 OA
ATOM     24  H   UNL     1      -0.557   4.079   1.600  0.00  0.00    +0.000 HD
ENDBRANCH  22  23
ENDBRANCH   5  21
TORSDOF 7
