REMARK  Name = laboratorio_evolutivo\Gen8_Mutante_8.pdb
REMARK  8 active torsions:
REMARK  status: ('A' for Active; 'I' for Inactive)
REMARK    1  A    between atoms: C3_3  and  C4_4
REMARK    2  A    between atoms: C8_9  and  C9_10
REMARK    3  A    between atoms: C12_13  and  C13_14
REMARK    4  A    between atoms: C14_15  and  C15_16
REMARK    5  A    between atoms: C15_16  and  C16_18
REMARK    6  A    between atoms: C16_18  and  C17_19
REMARK    7  A    between atoms: C18_20  and  C19_21
REMARK    8  A    between atoms: C19_21  and  C20_22
REMARK                            x       y       z     vdW  Elec       q    Type
REMARK                         _______ _______ _______ _____ _____    ______ ____
ROOT
ATOM      1  C9  UNL     1      -1.238   1.386  -0.102  0.00  0.00    +0.000 C 
ATOM      2  C10 UNL     1      -1.543   2.500  -1.125  0.00  0.00    +0.000 C 
ATOM      3  C11 UNL     1      -0.187   2.974  -1.623  0.00  0.00    +0.000 C 
ATOM      4  C12 UNL     1       0.717   2.918  -0.393  0.00  0.00    +0.000 C 
ATOM      5  C13 UNL     1       0.721   4.257   0.353  0.00  0.00    +0.000 C 
ATOM      6  C14 UNL     1       0.144   1.783   0.486  0.00  0.00    +0.000 C 
ENDROOT
BRANCH   1  12
ATOM      7  C4  UNL     1      -1.842  -1.078   0.272  0.00  0.00    +0.000 C 
ATOM      8  C5  UNL     1      -2.031  -2.363  -0.259  0.00  0.00    +0.000 C 
ATOM      9  C6  UNL     1      -1.813  -2.578  -1.607  0.00  0.00    +0.000 C 
ATOM     10  N1  UNL     1      -1.422  -1.614  -2.457  0.00  0.00    +0.000 NA
ATOM     11  C7  UNL     1      -1.250  -0.379  -1.935  0.00  0.00    +0.000 C 
ATOM     12  C8  UNL     1      -1.434  -0.036  -0.592  0.00  0.00    +0.000 C 
BRANCH   7  15
ATOM     13  C1  UNL     1      -3.737  -2.186   3.179  0.00  0.00    +0.000 C 
ATOM     14  C2  UNL     1      -2.888  -1.534   2.445  0.00  0.00    +0.000 C 
ATOM     15  C3  UNL     1      -2.037  -0.868   1.719  0.00  0.00    +0.000 C 
ENDBRANCH   7  15
ENDBRANCH   1  12
BRANCH   6  16
ATOM     16  C15 UNL     1       1.163   0.699   0.865  0.00  0.00    +0.000 C 
ATOM     17  O1  UNL     1       1.553   0.622   2.035  0.00  0.00    +0.000 OA
BRANCH  16  18
ATOM     18  C16 UNL     1       1.697  -0.284  -0.133  0.00  0.00    +0.000 C 
ATOM     19  C17 UNL     1       2.373   0.220  -1.364  0.00  0.00    +0.000 C 
ATOM     20  C18 UNL     1       1.614  -1.577   0.240  0.00  0.00    +0.000 C 
BRANCH  20  21
ATOM     21  C19 UNL     1       2.058  -2.779  -0.543  0.00  0.00    +0.000 C 
ATOM     22  C20 UNL     1       3.347  -3.360   0.017  0.00  0.00    +0.000 C 
ENDBRANCH  20  21
ENDBRANCH  16  18
ENDBRANCH   6  16
TORSDOF 5
