REMARK  Name = laboratorio_evolutivo\Gen8_Mut_3.pdb
REMARK  10 active torsions:
REMARK  status: ('A' for Active; 'I' for Inactive)
REMARK    1  A    between atoms: C1_1  and  C2_2
REMARK    2  A    between atoms: C2_2  and  C3_3
REMARK    3  A    between atoms: C3_3  and  C4_4
REMARK    4  A    between atoms: C3_3  and  C5_5
REMARK    5  A    between atoms: C5_5  and  C6_6
REMARK    6  A    between atoms: C6_6  and  C7_8
REMARK    7  A    between atoms: C8_9  and  C9_10
REMARK    8  A    between atoms: C12_13  and  C13_14
REMARK    9  A    between atoms: C17_19  and  C18_20
REMARK   10  A    between atoms: N2_21  and  O2_22
REMARK                            x       y       z     vdW  Elec       q    Type
REMARK                         _______ _______ _______ _____ _____    ______ ____
ROOT
ATOM      1  C7  UNL     1       0.573   0.050   0.939  0.00  0.00    +0.000 C 
ATOM      2  C8  UNL     1       0.461   1.437   1.620  0.00  0.00    +0.000 C 
ATOM      3  C9  UNL     1      -0.194   2.432   0.691  0.00  0.00    +0.000 C 
ATOM      4  C10 UNL     1       1.869   1.810   1.966  0.00  0.00    +0.000 C 
ATOM      5  C11 UNL     1       2.625   0.491   1.795  0.00  0.00    +0.000 C 
ATOM      6  C12 UNL     1       1.977   0.075   0.415  0.00  0.00    +0.000 C 
ENDROOT
BRANCH   6   7
ATOM      7  C13 UNL     1       2.570  -1.121  -0.086  0.00  0.00    +0.000 C 
ATOM      8  C14 UNL     1       3.058  -2.069   0.829  0.00  0.00    +0.000 C 
ATOM      9  N1  UNL     1       3.545  -3.252   0.460  0.00  0.00    +0.000 NA
ATOM     10  C15 UNL     1       3.618  -3.654  -0.804  0.00  0.00    +0.000 C 
ATOM     11  C16 UNL     1       3.157  -2.773  -1.769  0.00  0.00    +0.000 C 
ATOM     12  C17 UNL     1       2.640  -1.516  -1.414  0.00  0.00    +0.000 C 
BRANCH  12  13
ATOM     13  C18 UNL     1       2.298  -0.638  -2.507  0.00  0.00    +0.000 C 
ATOM     14  N2  UNL     1       1.929   0.589  -2.418  0.00  0.00    +0.000 NA
BRANCH  14  15
ATOM     15  O2  UNL     1       1.611   1.406  -3.449  0.00  0.00    +0.000 OA
ATOM     16  H   UNL     1       1.352   2.291  -3.283  0.00  0.00    +0.000 HD
ENDBRANCH  14  15
ENDBRANCH  12  13
ENDBRANCH   6   7
BRANCH   1  17
ATOM     17  C6  UNL     1      -0.519  -0.268   0.055  0.00  0.00    +0.000 C 
ATOM     18  O1  UNL     1      -0.524  -0.549  -1.119  0.00  0.00    +0.000 OA
BRANCH  17  19
ATOM     19  C5  UNL     1      -1.908  -0.258   0.678  0.00  0.00    +0.000 C 
BRANCH  19  20
ATOM     20  C3  UNL     1      -2.944  -0.599  -0.342  0.00  0.00    +0.000 C 
ATOM     21  C4  UNL     1      -2.981   0.298  -1.538  0.00  0.00    +0.000 C 
BRANCH  20  23
ATOM     22  C1  UNL     1      -4.756   0.777   0.743  0.00  0.00    +0.000 C 
ATOM     23  C2  UNL     1      -4.325  -0.582   0.297  0.00  0.00    +0.000 C 
ENDBRANCH  20  23
ENDBRANCH  19  20
ENDBRANCH  17  19
ENDBRANCH   1  17
TORSDOF 7
