REMARK  Name = laboratorio_evolutivo\Gen8_Mut_4.pdb
REMARK  9 active torsions:
REMARK  status: ('A' for Active; 'I' for Inactive)
REMARK    1  A    between atoms: C1_1  and  C2_2
REMARK    2  A    between atoms: C2_2  and  C3_3
REMARK    3  A    between atoms: C2_2  and  C4_4
REMARK    4  A    between atoms: C4_4  and  C5_5
REMARK    5  A    between atoms: C5_5  and  C6_7
REMARK    6  A    between atoms: C7_8  and  C8_9
REMARK    7  A    between atoms: C11_12  and  C12_13
REMARK    8  A    between atoms: C16_19  and  C17_20
REMARK    9  A    between atoms: N2_21  and  O2_22
REMARK                            x       y       z     vdW  Elec       q    Type
REMARK                         _______ _______ _______ _____ _____    ______ ____
ROOT
ATOM      1  C6  UNL     1      -0.221   0.827  -0.410  0.00  0.00    +0.000 C 
ATOM      2  C7  UNL     1      -0.183   2.305  -0.019  0.00  0.00    +0.000 C 
ATOM      3  C8  UNL     1       0.494   3.060  -1.116  0.00  0.00    +0.000 C 
ATOM      4  C9  UNL     1       0.628   2.338   1.269  0.00  0.00    +0.000 C 
ATOM      5  C10 UNL     1       1.021   0.842   1.512  0.00  0.00    +0.000 C 
ATOM      6  C11 UNL     1       1.219   0.447   0.102  0.00  0.00    +0.000 C 
ENDROOT
BRANCH   6   7
ATOM      7  C12 UNL     1       1.508  -0.897  -0.305  0.00  0.00    +0.000 C 
ATOM      8  C13 UNL     1       0.669  -1.930  -0.665  0.00  0.00    +0.000 C 
ATOM      9  N1  UNL     1       1.104  -3.121  -1.163  0.00  0.00    +0.000 NA
ATOM     10  C14 UNL     1       2.374  -3.408  -1.357  0.00  0.00    +0.000 C 
ATOM     11  F1  UNL     1       2.753  -4.600  -1.859  0.00  0.00    +0.000 F 
ATOM     12  C15 UNL     1       3.305  -2.408  -1.018  0.00  0.00    +0.000 C 
ATOM     13  C16 UNL     1       2.879  -1.212  -0.515  0.00  0.00    +0.000 C 
BRANCH  13  14
ATOM     14  C17 UNL     1       3.947  -0.283  -0.156  0.00  0.00    +0.000 C 
ATOM     15  N2  UNL     1       5.231  -0.528  -0.331  0.00  0.00    +0.000 NA
BRANCH  15  16
ATOM     16  O2  UNL     1       6.009   0.577   0.133  0.00  0.00    +0.000 OA
ATOM     17  H   UNL     1       6.944   0.549   0.074  0.00  0.00    +0.000 HD
ENDBRANCH  15  16
ENDBRANCH  13  14
ENDBRANCH   6   7
BRANCH   1  18
ATOM     18  C5  UNL     1      -1.281   0.127   0.340  0.00  0.00    +0.000 C 
ATOM     19  O1  UNL     1      -1.158  -0.695   1.238  0.00  0.00    +0.000 OA
BRANCH  18  20
ATOM     20  C4  UNL     1      -2.744   0.394   0.024  0.00  0.00    +0.000 C 
BRANCH  20  22
ATOM     21  C1  UNL     1      -5.025  -0.391   0.335  0.00  0.00    +0.000 C 
ATOM     22  C2  UNL     1      -3.591  -0.689   0.691  0.00  0.00    +0.000 C 
ATOM     23  C3  UNL     1      -3.272  -2.081   0.186  0.00  0.00    +0.000 C 
ENDBRANCH  20  22
ENDBRANCH  18  20
ENDBRANCH   1  18
TORSDOF 6
