REMARK  Name = laboratorio_evolutivo\Gen8_Mut_6.pdb
REMARK  10 active torsions:
REMARK  status: ('A' for Active; 'I' for Inactive)
REMARK    1  A    between atoms: C1_1  and  C2_2
REMARK    2  A    between atoms: C2_2  and  C3_3
REMARK    3  A    between atoms: C2_2  and  C4_4
REMARK    4  A    between atoms: C4_4  and  C5_5
REMARK    5  A    between atoms: C4_4  and  C6_6
REMARK    6  A    between atoms: C6_6  and  C7_8
REMARK    7  A    between atoms: C8_9  and  C9_10
REMARK    8  A    between atoms: C12_13  and  C13_14
REMARK    9  A    between atoms: C17_19  and  C18_20
REMARK   10  A    between atoms: N2_21  and  O2_22
REMARK                            x       y       z     vdW  Elec       q    Type
REMARK                         _______ _______ _______ _____ _____    ______ ____
ROOT
ATOM      1  C7  UNL     1      -0.026  -0.278  -0.929  0.00  0.00    +0.000 C 
ATOM      2  C8  UNL     1      -0.360  -1.691  -1.364  0.00  0.00    +0.000 C 
ATOM      3  C9  UNL     1       0.106  -1.988  -2.770  0.00  0.00    +0.000 C 
ATOM      4  C10 UNL     1       0.313  -2.626  -0.356  0.00  0.00    +0.000 C 
ATOM      5  C11 UNL     1       0.746  -1.543   0.742  0.00  0.00    +0.000 C 
ATOM      6  C12 UNL     1       1.371  -0.614  -0.208  0.00  0.00    +0.000 C 
ENDROOT
BRANCH   6   7
ATOM      7  C13 UNL     1       1.974   0.645   0.127  0.00  0.00    +0.000 C 
ATOM      8  C14 UNL     1       1.450   1.904  -0.056  0.00  0.00    +0.000 C 
ATOM      9  N1  UNL     1       2.117   3.062   0.151  0.00  0.00    +0.000 NA
ATOM     10  C15 UNL     1       3.395   3.072   0.567  0.00  0.00    +0.000 C 
ATOM     11  C16 UNL     1       3.982   1.841   0.769  0.00  0.00    +0.000 C 
ATOM     12  C17 UNL     1       3.318   0.650   0.561  0.00  0.00    +0.000 C 
BRANCH  12  13
ATOM     13  C18 UNL     1       4.012  -0.625   0.834  0.00  0.00    +0.000 C 
ATOM     14  N2  UNL     1       5.227  -0.502   1.263  0.00  0.00    +0.000 NA
BRANCH  14  15
ATOM     15  O2  UNL     1       5.980  -1.604   1.553  0.00  0.00    +0.000 OA
ATOM     16  H   UNL     1       6.858  -1.503   1.863  0.00  0.00    +0.000 HD
ENDBRANCH  14  15
ENDBRANCH  12  13
ENDBRANCH   6   7
BRANCH   1  17
ATOM     17  C6  UNL     1      -0.927   0.174   0.167  0.00  0.00    +0.000 C 
ATOM     18  O1  UNL     1      -0.488   0.668   1.242  0.00  0.00    +0.000 OA
BRANCH  17  19
ATOM     19  C4  UNL     1      -2.404   0.093   0.130  0.00  0.00    +0.000 C 
ATOM     20  C5  UNL     1      -3.092   0.229  -1.163  0.00  0.00    +0.000 C 
BRANCH  19  22
ATOM     21  C1  UNL     1      -4.380   0.427   1.640  0.00  0.00    +0.000 C 
ATOM     22  C2  UNL     1      -2.962   0.841   1.296  0.00  0.00    +0.000 C 
ATOM     23  C3  UNL     1      -3.038   2.336   1.012  0.00  0.00    +0.000 C 
ENDBRANCH  19  22
ENDBRANCH  17  19
ENDBRANCH   1  17
TORSDOF 6
