REMARK  Name = laboratorio_evolutivo\Gen8_Mutante_6.pdb
REMARK  10 active torsions:
REMARK  status: ('A' for Active; 'I' for Inactive)
REMARK    1  A    between atoms: C1_1  and  C2_2
REMARK    2  A    between atoms: C5_7  and  C6_8
REMARK    3  A    between atoms: N2_9  and  O1_10
REMARK    4  A    between atoms: C7_11  and  C8_12
REMARK    5  A    between atoms: C11_15  and  C12_16
REMARK    6  A    between atoms: C13_17  and  C14_18
REMARK    7  A    between atoms: C14_18  and  C15_20
REMARK    8  A    between atoms: C15_20  and  C16_21
REMARK    9  A    between atoms: C16_21  and  C17_22
REMARK   10  A    between atoms: C16_21  and  C18_23
REMARK                            x       y       z     vdW  Elec       q    Type
REMARK                         _______ _______ _______ _____ _____    ______ ____
ROOT
ATOM      1  C1  UNL     1      -2.409  -2.116  -1.855  0.00  0.00    +0.000 C 
ATOM      2  C2  UNL     1      -2.818  -0.863  -1.136  0.00  0.00    +0.000 C 
ATOM      3  N1  UNL     1      -3.852  -0.223  -1.754  0.00  0.00    +0.000 NA
ATOM      4  C3  UNL     1      -4.331   0.914  -1.209  0.00  0.00    +0.000 C 
ATOM      5  C4  UNL     1      -3.828   1.462  -0.057  0.00  0.00    +0.000 C 
ATOM      6  F1  UNL     1      -4.373   2.577   0.447  0.00  0.00    +0.000 F 
ATOM      7  C5  UNL     1      -2.773   0.808   0.569  0.00  0.00    +0.000 C 
ATOM      8  C7  UNL     1      -2.239  -0.403   0.063  0.00  0.00    +0.000 C 
ENDROOT
BRANCH   8   9
ATOM      9  C8  UNL     1      -1.072  -1.069   0.778  0.00  0.00    +0.000 C 
ATOM     10  C9  UNL     1      -1.235  -2.549   1.164  0.00  0.00    +0.000 C 
ATOM     11  C10 UNL     1       0.200  -3.047   1.281  0.00  0.00    +0.000 C 
ATOM     12  C11 UNL     1       0.888  -2.391   0.084  0.00  0.00    +0.000 C 
ATOM     13  C12 UNL     1       2.405  -2.487   0.131  0.00  0.00    +0.000 C 
ATOM     14  C13 UNL     1       0.282  -0.971   0.025  0.00  0.00    +0.000 C 
BRANCH  14  15
ATOM     15  C14 UNL     1       1.166   0.089   0.683  0.00  0.00    +0.000 C 
ATOM     16  O2  UNL     1       1.475   0.014   1.872  0.00  0.00    +0.000 OA
BRANCH  15  17
ATOM     17  C15 UNL     1       1.630   1.224  -0.219  0.00  0.00    +0.000 C 
BRANCH  17  18
ATOM     18  C16 UNL     1       2.649   2.164   0.441  0.00  0.00    +0.000 C 
ATOM     19  C17 UNL     1       4.030   1.504   0.519  0.00  0.00    +0.000 C 
ATOM     20  C18 UNL     1       2.743   3.472  -0.348  0.00  0.00    +0.000 C 
ENDBRANCH  17  18
ENDBRANCH  15  17
ENDBRANCH  14  15
ENDBRANCH   8   9
BRANCH   7  21
ATOM     21  C6  UNL     1      -2.272   1.427   1.805  0.00  0.00    +0.000 C 
ATOM     22  N2  UNL     1      -1.571   2.517   1.893  0.00  0.00    +0.000 NA
BRANCH  22  23
ATOM     23  O1  UNL     1      -1.298   3.066   0.636  0.00  0.00    +0.000 OA
ATOM     24  H   UNL     1      -0.798   3.856   0.568  0.00  0.00    +0.000 HD
ENDBRANCH  22  23
ENDBRANCH   7  21
TORSDOF 6
