REMARK  Name = laboratorio_evolutivo\Gen8_Mut_7.pdb
REMARK  10 active torsions:
REMARK  status: ('A' for Active; 'I' for Inactive)
REMARK    1  A    between atoms: C1_1  and  C2_2
REMARK    2  A    between atoms: C2_2  and  C3_3
REMARK    3  A    between atoms: C6_6  and  C7_7
REMARK    4  A    between atoms: C11_12  and  C12_13
REMARK    5  A    between atoms: N2_14  and  O1_15
REMARK    6  A    between atoms: C13_16  and  C14_17
REMARK    7  A    between atoms: C14_17  and  C15_19
REMARK    8  A    between atoms: C15_19  and  C16_20
REMARK    9  A    between atoms: C16_20  and  C17_21
REMARK   10  A    between atoms: C16_20  and  C18_22
REMARK                            x       y       z     vdW  Elec       q    Type
REMARK                         _______ _______ _______ _____ _____    ______ ____
ROOT
ATOM      1  C3  UNL     1       0.077   2.174  -0.704  0.00  0.00    +0.000 C 
ATOM      2  C4  UNL     1      -1.231   2.664  -1.324  0.00  0.00    +0.000 C 
ATOM      3  C5  UNL     1      -1.951   1.381  -1.787  0.00  0.00    +0.000 C 
ATOM      4  C6  UNL     1      -1.451   0.436  -0.636  0.00  0.00    +0.000 C 
ATOM      5  C13 UNL     1      -0.005   0.656  -0.880  0.00  0.00    +0.000 C 
ENDROOT
BRANCH   4   6
ATOM      6  C7  UNL     1      -1.972  -0.919  -0.896  0.00  0.00    +0.000 C 
ATOM      7  C8  UNL     1      -2.335  -1.369  -2.154  0.00  0.00    +0.000 C 
ATOM      8  N1  UNL     1      -2.760  -2.612  -2.414  0.00  0.00    +0.000 NA
ATOM      9  C9  UNL     1      -2.868  -3.536  -1.455  0.00  0.00    +0.000 C 
ATOM     10  C10 UNL     1      -2.521  -3.165  -0.158  0.00  0.00    +0.000 C 
ATOM     11  C11 UNL     1      -2.083  -1.883   0.120  0.00  0.00    +0.000 C 
BRANCH  11  12
ATOM     12  C12 UNL     1      -1.816  -1.555   1.506  0.00  0.00    +0.000 C 
ATOM     13  N2  UNL     1      -1.878  -2.416   2.445  0.00  0.00    +0.000 NA
BRANCH  13  14
ATOM     14  O1  UNL     1      -1.608  -2.018   3.741  0.00  0.00    +0.000 OA
ATOM     15  H   UNL     1      -1.650  -2.640   4.440  0.00  0.00    +0.000 HD
ENDBRANCH  13  14
ENDBRANCH  11  12
ENDBRANCH   4   6
BRANCH   1  17
ATOM     16  C1  UNL     1       1.144   4.248  -1.455  0.00  0.00    +0.000 C 
ATOM     17  C2  UNL     1       1.210   2.739  -1.505  0.00  0.00    +0.000 C 
ENDBRANCH   1  17
BRANCH   5  18
ATOM     18  C14 UNL     1       1.039  -0.087  -0.232  0.00  0.00    +0.000 C 
ATOM     19  O2  UNL     1       1.664  -0.930  -0.939  0.00  0.00    +0.000 OA
BRANCH  18  20
ATOM     20  C15 UNL     1       1.509  -0.020   1.160  0.00  0.00    +0.000 C 
BRANCH  20  21
ATOM     21  C16 UNL     1       2.687  -0.907   1.447  0.00  0.00    +0.000 C 
ATOM     22  C17 UNL     1       3.130  -0.807   2.890  0.00  0.00    +0.000 C 
ATOM     23  C18 UNL     1       2.522  -2.341   1.078  0.00  0.00    +0.000 C 
ENDBRANCH  20  21
ENDBRANCH  18  20
ENDBRANCH   5  18
TORSDOF 7
