REMARK  Name = laboratorio_evolutivo\Gen8_Mut_5.pdb
REMARK  9 active torsions:
REMARK  status: ('A' for Active; 'I' for Inactive)
REMARK    1  A    between atoms: C1_1  and  C2_2
REMARK    2  A    between atoms: C2_2  and  C3_3
REMARK    3  A    between atoms: C2_2  and  C4_4
REMARK    4  A    between atoms: C4_4  and  C5_5
REMARK    5  A    between atoms: C5_5  and  C6_7
REMARK    6  A    between atoms: C7_8  and  C8_9
REMARK    7  A    between atoms: C11_12  and  C12_13
REMARK    8  A    between atoms: C16_19  and  C17_20
REMARK    9  A    between atoms: N2_21  and  O2_22
REMARK                            x       y       z     vdW  Elec       q    Type
REMARK                         _______ _______ _______ _____ _____    ______ ____
ROOT
ATOM      1  C6  UNL     1      -0.194   0.667   0.149  0.00  0.00    +0.000 C 
ATOM      2  C7  UNL     1      -0.560   1.836  -0.813  0.00  0.00    +0.000 C 
ATOM      3  C8  UNL     1      -1.147   2.967  -0.025  0.00  0.00    +0.000 C 
ATOM      4  C9  UNL     1       0.779   2.357  -1.335  0.00  0.00    +0.000 C 
ATOM      5  C10 UNL     1       1.624   2.053  -0.113  0.00  0.00    +0.000 C 
ATOM      6  C11 UNL     1       1.276   0.466  -0.169  0.00  0.00    +0.000 C 
ENDROOT
BRANCH   6   7
ATOM      7  C12 UNL     1       2.150  -0.067   0.895  0.00  0.00    +0.000 C 
ATOM      8  C13 UNL     1       1.898   0.274   2.232  0.00  0.00    +0.000 C 
ATOM      9  N1  UNL     1       2.626  -0.244   3.249  0.00  0.00    +0.000 NA
ATOM     10  C14 UNL     1       3.621  -1.103   3.026  0.00  0.00    +0.000 C 
ATOM     11  C15 UNL     1       3.876  -1.444   1.708  0.00  0.00    +0.000 C 
ATOM     12  F1  UNL     1       4.946  -2.321   1.555  0.00  0.00    +0.000 F 
ATOM     13  C16 UNL     1       3.201  -0.985   0.612  0.00  0.00    +0.000 C 
BRANCH  13  14
ATOM     14  C17 UNL     1       3.604  -1.294  -0.745  0.00  0.00    +0.000 C 
ATOM     15  N2  UNL     1       3.187  -0.900  -1.833  0.00  0.00    +0.000 NA
BRANCH  15  16
ATOM     16  O2  UNL     1       3.669  -1.278  -3.043  0.00  0.00    +0.000 OA
ATOM     17  H   UNL     1       3.293  -0.929  -3.827  0.00  0.00    +0.000 HD
ENDBRANCH  15  16
ENDBRANCH  13  14
ENDBRANCH   6   7
BRANCH   1  18
ATOM     18  C5  UNL     1      -1.033  -0.507  -0.219  0.00  0.00    +0.000 C 
ATOM     19  O1  UNL     1      -0.607  -1.620  -0.463  0.00  0.00    +0.000 OA
BRANCH  18  20
ATOM     20  C4  UNL     1      -2.523  -0.195  -0.261  0.00  0.00    +0.000 C 
BRANCH  20  22
ATOM     21  C1  UNL     1      -4.840  -0.887  -0.649  0.00  0.00    +0.000 C 
ATOM     22  C2  UNL     1      -3.377  -1.361  -0.602  0.00  0.00    +0.000 C 
ATOM     23  C3  UNL     1      -3.384  -2.426   0.476  0.00  0.00    +0.000 C 
ENDBRANCH  20  22
ENDBRANCH  18  20
ENDBRANCH   1  18
TORSDOF 6
