REMARK  Name = laboratorio_evolutivo\Gen8_Mutante_5.pdb
REMARK  11 active torsions:
REMARK  status: ('A' for Active; 'I' for Inactive)
REMARK    1  A    between atoms: C1_1  and  C2_2
REMARK    2  A    between atoms: C2_2  and  C3_3
REMARK    3  A    between atoms: C3_3  and  C4_4
REMARK    4  A    between atoms: C3_3  and  C5_5
REMARK    5  A    between atoms: C5_5  and  C6_6
REMARK    6  A    between atoms: C6_6  and  C7_8
REMARK    7  A    between atoms: C8_9  and  C9_10
REMARK    8  A    between atoms: C12_13  and  C13_14
REMARK    9  A    between atoms: C14_15  and  C15_16
REMARK   10  A    between atoms: N1_17  and  O2_18
REMARK   11  A    between atoms: C18_22  and  C19_23
REMARK                            x       y       z     vdW  Elec       q    Type
REMARK                         _______ _______ _______ _____ _____    ______ ____
ROOT
ATOM      1  C7  UNL     1      -0.318  -0.951   1.446  0.00  0.00    +0.000 C 
ATOM      2  C8  UNL     1      -0.788  -2.296   2.030  0.00  0.00    +0.000 C 
ATOM      3  C9  UNL     1       0.106  -3.499   1.772  0.00  0.00    +0.000 C 
ATOM      4  C10 UNL     1      -2.206  -2.453   1.491  0.00  0.00    +0.000 C 
ATOM      5  C11 UNL     1      -2.792  -1.047   1.594  0.00  0.00    +0.000 C 
ATOM      6  C12 UNL     1      -1.595  -0.067   1.509  0.00  0.00    +0.000 C 
ENDROOT
BRANCH   6   7
ATOM      7  C13 UNL     1      -1.673   1.130   0.569  0.00  0.00    +0.000 C 
ATOM      8  C14 UNL     1      -1.178   2.398   0.979  0.00  0.00    +0.000 C 
ATOM      9  C16 UNL     1      -1.294   3.528   0.165  0.00  0.00    +0.000 C 
ATOM     10  C17 UNL     1      -1.873   3.377  -1.068  0.00  0.00    +0.000 C 
ATOM     11  N2  UNL     1      -2.327   2.200  -1.519  0.00  0.00    +0.000 NA
ATOM     12  C18 UNL     1      -2.222   1.094  -0.728  0.00  0.00    +0.000 C 
ATOM     13  C19 UNL     1      -2.803  -0.117  -1.397  0.00  0.00    +0.000 C 
BRANCH   8  14
ATOM     14  C15 UNL     1      -0.488   2.680   2.261  0.00  0.00    +0.000 C 
ATOM     15  N1  UNL     1       0.253   1.819   2.879  0.00  0.00    +0.000 NA
BRANCH  15  16
ATOM     16  O2  UNL     1       0.777   2.418   4.030  0.00  0.00    +0.000 OA
ATOM     17  H   UNL     1       1.340   1.929   4.598  0.00  0.00    +0.000 HD
ENDBRANCH  15  16
ENDBRANCH   8  14
ENDBRANCH   6   7
BRANCH   1  18
ATOM     18  C6  UNL     1       0.324  -1.039   0.059  0.00  0.00    +0.000 C 
ATOM     19  O1  UNL     1      -0.101  -1.800  -0.810  0.00  0.00    +0.000 OA
BRANCH  18  20
ATOM     20  C5  UNL     1       1.520  -0.123  -0.185  0.00  0.00    +0.000 C 
BRANCH  20  21
ATOM     21  C3  UNL     1       2.107  -0.226  -1.606  0.00  0.00    +0.000 C 
ATOM     22  C4  UNL     1       2.937  -1.507  -1.751  0.00  0.00    +0.000 C 
BRANCH  21  24
ATOM     23  C1  UNL     1       3.473   1.091  -3.334  0.00  0.00    +0.000 C 
ATOM     24  C2  UNL     1       2.949   1.030  -1.906  0.00  0.00    +0.000 C 
ENDBRANCH  21  24
ENDBRANCH  20  21
ENDBRANCH  18  20
ENDBRANCH   1  18
TORSDOF 7
