REMARK  Name = laboratorio_evolutivo\Gen8_Mutante_10.pdb
REMARK  8 active torsions:
REMARK  status: ('A' for Active; 'I' for Inactive)
REMARK    1  A    between atoms: C3_3  and  C4_4
REMARK    2  A    between atoms: C8_9  and  C9_10
REMARK    3  A    between atoms: C12_13  and  C13_14
REMARK    4  A    between atoms: C14_15  and  C15_16
REMARK    5  A    between atoms: C15_16  and  C16_18
REMARK    6  A    between atoms: C16_18  and  C19_21
REMARK    7  A    between atoms: C17_19  and  C18_20
REMARK    8  A    between atoms: C19_21  and  C20_22
REMARK                            x       y       z     vdW  Elec       q    Type
REMARK                         _______ _______ _______ _____ _____    ______ ____
ROOT
ATOM      1  C9  UNL     1       1.348  -1.525  -0.151  0.00  0.00    +0.000 C 
ATOM      2  C10 UNL     1       1.172  -3.044  -0.277  0.00  0.00    +0.000 C 
ATOM      3  C11 UNL     1       0.890  -3.219  -1.762  0.00  0.00    +0.000 C 
ATOM      4  C12 UNL     1      -0.040  -2.050  -2.118  0.00  0.00    +0.000 C 
ATOM      5  C13 UNL     1       0.212  -1.537  -3.531  0.00  0.00    +0.000 C 
ATOM      6  C14 UNL     1       0.209  -0.964  -1.039  0.00  0.00    +0.000 C 
ENDROOT
BRANCH   1  12
ATOM      7  C4  UNL     1       1.894   0.412   1.441  0.00  0.00    +0.000 C 
ATOM      8  C5  UNL     1       1.958   0.912   2.749  0.00  0.00    +0.000 C 
ATOM      9  C6  UNL     1       1.603   0.090   3.801  0.00  0.00    +0.000 C 
ATOM     10  N1  UNL     1       1.192  -1.179   3.644  0.00  0.00    +0.000 NA
ATOM     11  C7  UNL     1       1.129  -1.648   2.376  0.00  0.00    +0.000 C 
ATOM     12  C8  UNL     1       1.470  -0.919   1.234  0.00  0.00    +0.000 C 
BRANCH   7  15
ATOM     13  C1  UNL     1       1.717   3.816   0.202  0.00  0.00    +0.000 C 
ATOM     14  C2  UNL     1       2.013   2.554   0.267  0.00  0.00    +0.000 C 
ATOM     15  C3  UNL     1       2.302   1.287   0.329  0.00  0.00    +0.000 C 
ENDBRANCH   7  15
ENDBRANCH   1  12
BRANCH   6  16
ATOM     16  C15 UNL     1      -1.074  -0.729  -0.234  0.00  0.00    +0.000 C 
ATOM     17  O1  UNL     1      -1.658  -1.654   0.332  0.00  0.00    +0.000 OA
BRANCH  16  18
ATOM     18  C16 UNL     1      -1.603   0.671  -0.087  0.00  0.00    +0.000 C 
ATOM     19  C17 UNL     1      -1.608   1.495  -1.152  0.00  0.00    +0.000 C 
ATOM     20  C18 UNL     1      -2.105   2.906  -1.187  0.00  0.00    +0.000 C 
BRANCH  18  21
ATOM     21  C19 UNL     1      -2.100   1.014   1.294  0.00  0.00    +0.000 C 
ATOM     22  C20 UNL     1      -3.596   0.780   1.450  0.00  0.00    +0.000 C 
ENDBRANCH  18  21
ENDBRANCH  16  18
ENDBRANCH   6  16
TORSDOF 5
