REMARK  Name = laboratorio_evolutivo\Gen8_Mutante_1.pdb
REMARK  8 active torsions:
REMARK  status: ('A' for Active; 'I' for Inactive)
REMARK    1  A    between atoms: C3_3  and  C4_4
REMARK    2  A    between atoms: C6_6  and  C7_7
REMARK    3  A    between atoms: C9_10  and  C10_11
REMARK    4  A    between atoms: C13_14  and  C14_15
REMARK    5  A    between atoms: C15_16  and  C16_17
REMARK    6  A    between atoms: C16_17  and  C17_19
REMARK    7  A    between atoms: C17_19  and  C18_20
REMARK    8  A    between atoms: C19_21  and  C20_22
REMARK                            x       y       z     vdW  Elec       q    Type
REMARK                         _______ _______ _______ _____ _____    ______ ____
ROOT
ATOM      1  C10 UNL     1       0.237  -0.794  -0.215  0.00  0.00    +0.000 C 
ATOM      2  C11 UNL     1       0.048  -1.442   1.166  0.00  0.00    +0.000 C 
ATOM      3  C12 UNL     1      -1.310  -2.149   1.111  0.00  0.00    +0.000 C 
ATOM      4  C13 UNL     1      -2.017  -1.669  -0.167  0.00  0.00    +0.000 C 
ATOM      5  C14 UNL     1      -2.043  -2.753  -1.245  0.00  0.00    +0.000 C 
ATOM      6  C15 UNL     1      -1.218  -0.423  -0.607  0.00  0.00    +0.000 C 
ENDROOT
BRANCH   1  13
ATOM      7  C4  UNL     1       2.719  -0.126  -0.064  0.00  0.00    +0.000 C 
ATOM      8  C5  UNL     1       3.716   0.855  -0.209  0.00  0.00    +0.000 C 
ATOM      9  C6  UNL     1       3.376   2.127  -0.645  0.00  0.00    +0.000 C 
ATOM     10  C7  UNL     1       4.430   3.178  -0.811  0.00  0.00    +0.000 C 
ATOM     11  N1  UNL     1       2.111   2.460  -0.956  0.00  0.00    +0.000 NA
ATOM     12  C8  UNL     1       1.158   1.511  -0.790  0.00  0.00    +0.000 C 
ATOM     13  C9  UNL     1       1.373   0.209  -0.338  0.00  0.00    +0.000 C 
BRANCH   7  16
ATOM     14  C1  UNL     1       5.076  -2.038   1.942  0.00  0.00    +0.000 C 
ATOM     15  C2  UNL     1       4.113  -1.764   1.116  0.00  0.00    +0.000 C 
ATOM     16  C3  UNL     1       3.140  -1.492   0.296  0.00  0.00    +0.000 C 
ENDBRANCH   7  16
ENDBRANCH   1  13
BRANCH   6  17
ATOM     17  C16 UNL     1      -1.831   0.791   0.105  0.00  0.00    +0.000 C 
ATOM     18  O1  UNL     1      -1.342   1.297   1.111  0.00  0.00    +0.000 OA
BRANCH  17  19
ATOM     19  C17 UNL     1      -3.096   1.358  -0.469  0.00  0.00    +0.000 C 
ATOM     20  C18 UNL     1      -3.033   1.838  -1.885  0.00  0.00    +0.000 C 
ATOM     21  C19 UNL     1      -4.198   1.479   0.295  0.00  0.00    +0.000 C 
ATOM     22  C20 UNL     1      -4.375   1.047   1.718  0.00  0.00    +0.000 C 
ENDBRANCH  17  19
ENDBRANCH   6  17
TORSDOF 4
