REMARK  Name = laboratorio_evolutivo\Gen8_Mut_1.pdb
REMARK  10 active torsions:
REMARK  status: ('A' for Active; 'I' for Inactive)
REMARK    1  A    between atoms: C1_1  and  C2_2
REMARK    2  A    between atoms: C4_4  and  C5_5
REMARK    3  A    between atoms: N1_6  and  O1_7
REMARK    4  A    between atoms: C6_8  and  C7_9
REMARK    5  A    between atoms: C10_12  and  C11_13
REMARK    6  A    between atoms: C12_14  and  C13_15
REMARK    7  A    between atoms: C13_15  and  C14_17
REMARK    8  A    between atoms: C14_17  and  C15_18
REMARK    9  A    between atoms: C15_18  and  C16_19
REMARK   10  A    between atoms: C15_18  and  C17_20
REMARK                            x       y       z     vdW  Elec       q    Type
REMARK                         _______ _______ _______ _____ _____    ______ ____
ROOT
ATOM      1  C7  UNL     1      -1.188  -1.189  -0.247  0.00  0.00    +0.000 C 
ATOM      2  C8  UNL     1      -1.399  -1.248  -1.795  0.00  0.00    +0.000 C 
ATOM      3  C9  UNL     1      -0.884  -2.689  -1.977  0.00  0.00    +0.000 C 
ATOM      4  C10 UNL     1       0.430  -2.603  -1.189  0.00  0.00    +0.000 C 
ATOM      5  C11 UNL     1       1.498  -2.380  -2.200  0.00  0.00    +0.000 C 
ATOM      6  C12 UNL     1       0.258  -1.544  -0.134  0.00  0.00    +0.000 C 
ENDROOT
BRANCH   1  11
ATOM      7  C1  UNL     1      -2.891   4.024   1.417  0.00  0.00    +0.000 C 
ATOM      8  C2  UNL     1      -2.465   2.659   1.024  0.00  0.00    +0.000 C 
ATOM      9  C3  UNL     1      -2.335   1.631   1.928  0.00  0.00    +0.000 C 
ATOM     10  C4  UNL     1      -1.934   0.345   1.558  0.00  0.00    +0.000 C 
ATOM     11  C6  UNL     1      -1.652   0.094   0.225  0.00  0.00    +0.000 C 
ATOM     12  C18 UNL     1      -1.797   1.169  -0.665  0.00  0.00    +0.000 C 
ATOM     13  N2  UNL     1      -2.187   2.387  -0.258  0.00  0.00    +0.000 NA
BRANCH  10  14
ATOM     14  C5  UNL     1      -1.906  -0.664   2.596  0.00  0.00    +0.000 C 
ATOM     15  N1  UNL     1      -1.670  -1.911   2.437  0.00  0.00    +0.000 NA
BRANCH  15  16
ATOM     16  O1  UNL     1      -1.658  -2.814   3.473  0.00  0.00    +0.000 OA
ATOM     17  H   UNL     1      -1.479  -3.718   3.304  0.00  0.00    +0.000 HD
ENDBRANCH  15  16
ENDBRANCH  10  14
ENDBRANCH   1  11
BRANCH   6  18
ATOM     18  C13 UNL     1       1.248  -0.479  -0.131  0.00  0.00    +0.000 C 
ATOM     19  O2  UNL     1       2.093  -0.387  -1.048  0.00  0.00    +0.000 OA
BRANCH  18  20
ATOM     20  C14 UNL     1       1.392   0.589   0.904  0.00  0.00    +0.000 C 
BRANCH  20  21
ATOM     21  C15 UNL     1       2.659   1.395   0.675  0.00  0.00    +0.000 C 
ATOM     22  C16 UNL     1       2.730   2.085  -0.640  0.00  0.00    +0.000 C 
ATOM     23  C17 UNL     1       3.916   0.602   0.918  0.00  0.00    +0.000 C 
ENDBRANCH  20  21
ENDBRANCH  18  20
ENDBRANCH   6  18
TORSDOF 6
