REMARK  Name = laboratorio_evolutivo\Gen8_Mut_8.pdb
REMARK  10 active torsions:
REMARK  status: ('A' for Active; 'I' for Inactive)
REMARK    1  A    between atoms: C1_1  and  C2_2
REMARK    2  A    between atoms: C5_6  and  C6_7
REMARK    3  A    between atoms: N2_8  and  O1_9
REMARK    4  A    between atoms: C7_10  and  C8_11
REMARK    5  A    between atoms: C11_14  and  C12_15
REMARK    6  A    between atoms: C13_16  and  C14_17
REMARK    7  A    between atoms: C14_17  and  C15_19
REMARK    8  A    between atoms: C15_19  and  C16_20
REMARK    9  A    between atoms: C16_20  and  C17_21
REMARK   10  A    between atoms: C16_20  and  C18_22
REMARK                            x       y       z     vdW  Elec       q    Type
REMARK                         _______ _______ _______ _____ _____    ______ ____
ROOT
ATOM      1  C8  UNL     1      -0.889  -0.249  -0.692  0.00  0.00    +0.000 C 
ATOM      2  C9  UNL     1      -0.719  -1.542  -1.494  0.00  0.00    +0.000 C 
ATOM      3  C10 UNL     1      -0.139  -0.984  -2.844  0.00  0.00    +0.000 C 
ATOM      4  C11 UNL     1       0.493   0.350  -2.544  0.00  0.00    +0.000 C 
ATOM      5  C12 UNL     1       1.930   0.373  -2.983  0.00  0.00    +0.000 C 
ATOM      6  C13 UNL     1       0.232   0.643  -1.113  0.00  0.00    +0.000 C 
ENDROOT
BRANCH   1  13
ATOM      7  C1  UNL     1      -2.540   1.846  -1.966  0.00  0.00    +0.000 C 
ATOM      8  C2  UNL     1      -2.879   1.214  -0.655  0.00  0.00    +0.000 C 
ATOM      9  N1  UNL     1      -3.982   1.684  -0.047  0.00  0.00    +0.000 NA
ATOM     10  C3  UNL     1      -4.512   1.192   1.079  0.00  0.00    +0.000 C 
ATOM     11  C4  UNL     1      -3.835   0.106   1.637  0.00  0.00    +0.000 C 
ATOM     12  C5  UNL     1      -2.680  -0.405   1.032  0.00  0.00    +0.000 C 
ATOM     13  C7  UNL     1      -2.139   0.128  -0.153  0.00  0.00    +0.000 C 
BRANCH  12  14
ATOM     14  C6  UNL     1      -2.029  -1.489   1.764  0.00  0.00    +0.000 C 
ATOM     15  N2  UNL     1      -2.573  -1.934   2.875  0.00  0.00    +0.000 NA
BRANCH  15  16
ATOM     16  O1  UNL     1      -1.992  -2.958   3.598  0.00  0.00    +0.000 OA
ATOM     17  H   UNL     1      -2.395  -3.261   4.388  0.00  0.00    +0.000 HD
ENDBRANCH  15  16
ENDBRANCH  12  14
ENDBRANCH   1  13
BRANCH   6  18
ATOM     18  C14 UNL     1       1.482   0.233  -0.314  0.00  0.00    +0.000 C 
ATOM     19  O2  UNL     1       2.384  -0.385  -0.851  0.00  0.00    +0.000 OA
BRANCH  18  20
ATOM     20  C15 UNL     1       1.631   0.562   1.112  0.00  0.00    +0.000 C 
BRANCH  20  21
ATOM     21  C16 UNL     1       2.852  -0.198   1.641  0.00  0.00    +0.000 C 
ATOM     22  C17 UNL     1       4.072   0.179   0.843  0.00  0.00    +0.000 C 
ATOM     23  C18 UNL     1       3.128   0.281   3.090  0.00  0.00    +0.000 C 
ENDBRANCH  20  21
ENDBRANCH  18  20
ENDBRANCH   6  18
TORSDOF 6
