REMARK  Name = laboratorio_evolutivo\Gen8_Mutante_7.pdb
REMARK  11 active torsions:
REMARK  status: ('A' for Active; 'I' for Inactive)
REMARK    1  A    between atoms: C1_1  and  C2_2
REMARK    2  A    between atoms: C4_5  and  C5_6
REMARK    3  A    between atoms: C6_7  and  C7_8
REMARK    4  A    between atoms: C10_11  and  C11_12
REMARK    5  A    between atoms: C12_13  and  C13_14
REMARK    6  A    between atoms: C13_14  and  C14_16
REMARK    7  A    between atoms: C14_16  and  C15_17
REMARK    8  A    between atoms: C15_17  and  C16_18
REMARK    9  A    between atoms: C15_17  and  C17_19
REMARK   10  A    between atoms: C18_20  and  C19_21
REMARK   11  A    between atoms: N2_22  and  O2_23
REMARK                            x       y       z     vdW  Elec       q    Type
REMARK                         _______ _______ _______ _____ _____    ______ ____
ROOT
ATOM      1  C1  UNL     1      -3.530   2.791   1.216  0.00  0.00    +0.000 C 
ATOM      2  C2  UNL     1      -3.073   1.458   0.705  0.00  0.00    +0.000 C 
ATOM      3  C3  UNL     1      -3.627   0.302   1.216  0.00  0.00    +0.000 C 
ATOM      4  N1  UNL     1      -3.273  -0.933   0.823  0.00  0.00    +0.000 NA
ATOM      5  C4  UNL     1      -2.304  -1.064  -0.117  0.00  0.00    +0.000 C 
ATOM      6  C5  UNL     1      -2.033  -2.496  -0.488  0.00  0.00    +0.000 C 
ATOM      7  C6  UNL     1      -1.616   0.031  -0.685  0.00  0.00    +0.000 C 
ATOM      8  C18 UNL     1      -2.049   1.302  -0.245  0.00  0.00    +0.000 C 
ENDROOT
BRANCH   7   9
ATOM      9  C7  UNL     1      -0.498  -0.227  -1.683  0.00  0.00    +0.000 C 
ATOM     10  C8  UNL     1      -0.012   0.848  -2.662  0.00  0.00    +0.000 C 
ATOM     11  C9  UNL     1       1.134   0.151  -3.386  0.00  0.00    +0.000 C 
ATOM     12  C10 UNL     1       1.831  -0.694  -2.308  0.00  0.00    +0.000 C 
ATOM     13  C11 UNL     1       2.202  -2.077  -2.841  0.00  0.00    +0.000 C 
ATOM     14  C12 UNL     1       0.834  -0.777  -1.118  0.00  0.00    +0.000 C 
BRANCH  14  15
ATOM     15  C13 UNL     1       1.360   0.003   0.095  0.00  0.00    +0.000 C 
ATOM     16  O1  UNL     1       2.043   1.022  -0.029  0.00  0.00    +0.000 OA
BRANCH  15  17
ATOM     17  C14 UNL     1       0.968  -0.521   1.473  0.00  0.00    +0.000 C 
BRANCH  17  18
ATOM     18  C15 UNL     1       1.995  -0.175   2.562  0.00  0.00    +0.000 C 
ATOM     19  C16 UNL     1       3.291  -0.966   2.374  0.00  0.00    +0.000 C 
ATOM     20  C17 UNL     1       1.408  -0.458   3.946  0.00  0.00    +0.000 C 
ENDBRANCH  17  18
ENDBRANCH  15  17
ENDBRANCH  14  15
ENDBRANCH   7   9
BRANCH   8  21
ATOM     21  C19 UNL     1      -1.492   2.550  -0.792  0.00  0.00    +0.000 C 
ATOM     22  N2  UNL     1      -0.536   3.259  -0.275  0.00  0.00    +0.000 NA
BRANCH  22  23
ATOM     23  O2  UNL     1      -0.054   2.680   0.903  0.00  0.00    +0.000 OA
ATOM     24  H   UNL     1       0.640   3.093   1.378  0.00  0.00    +0.000 HD
ENDBRANCH  22  23
ENDBRANCH   8  21
TORSDOF 6
