REMARK  Name = laboratorio_evolutivo\Gen9_Mutante_1.pdb
REMARK  9 active torsions:
REMARK  status: ('A' for Active; 'I' for Inactive)
REMARK    1  A    between atoms: C3_3  and  C4_4
REMARK    2  A    between atoms: C6_6  and  C7_7
REMARK    3  A    between atoms: C9_10  and  C10_11
REMARK    4  A    between atoms: C13_14  and  C14_15
REMARK    5  A    between atoms: C15_16  and  C16_17
REMARK    6  A    between atoms: C16_17  and  C17_19
REMARK    7  A    between atoms: C17_19  and  C18_20
REMARK    8  A    between atoms: C19_21  and  C20_22
REMARK    9  A    between atoms: C20_22  and  C21_23
REMARK                            x       y       z     vdW  Elec       q    Type
REMARK                         _______ _______ _______ _____ _____    ______ ____
ROOT
ATOM      1  C10 UNL     1      -1.080  -0.151  -1.506  0.00  0.00    +0.000 C 
ATOM      2  C11 UNL     1      -1.360   0.628  -2.800  0.00  0.00    +0.000 C 
ATOM      3  C12 UNL     1      -0.231   0.169  -3.711  0.00  0.00    +0.000 C 
ATOM      4  C13 UNL     1       1.002   0.104  -2.799  0.00  0.00    +0.000 C 
ATOM      5  C14 UNL     1       1.928  -1.045  -3.179  0.00  0.00    +0.000 C 
ATOM      6  C15 UNL     1       0.457  -0.031  -1.354  0.00  0.00    +0.000 C 
ENDROOT
BRANCH   1  13
ATOM      7  C4  UNL     1      -1.862  -0.619   0.894  0.00  0.00    +0.000 C 
ATOM      8  C5  UNL     1      -2.618  -0.236   2.011  0.00  0.00    +0.000 C 
ATOM      9  C6  UNL     1      -3.411   0.901   1.945  0.00  0.00    +0.000 C 
ATOM     10  C7  UNL     1      -4.238   1.318   3.122  0.00  0.00    +0.000 C 
ATOM     11  N1  UNL     1      -3.473   1.668   0.840  0.00  0.00    +0.000 NA
ATOM     12  C8  UNL     1      -2.724   1.295  -0.225  0.00  0.00    +0.000 C 
ATOM     13  C9  UNL     1      -1.899   0.171  -0.272  0.00  0.00    +0.000 C 
BRANCH   7  16
ATOM     14  C1  UNL     1      -1.349  -3.966  -0.396  0.00  0.00    +0.000 C 
ATOM     15  C2  UNL     1      -1.195  -2.897   0.324  0.00  0.00    +0.000 C 
ATOM     16  C3  UNL     1      -1.045  -1.831   1.053  0.00  0.00    +0.000 C 
ENDBRANCH   7  16
ENDBRANCH   1  13
BRANCH   6  17
ATOM     17  C16 UNL     1       0.851   1.205  -0.534  0.00  0.00    +0.000 C 
ATOM     18  O1  UNL     1       0.568   2.343  -0.914  0.00  0.00    +0.000 OA
BRANCH  17  19
ATOM     19  C17 UNL     1       1.552   1.031   0.787  0.00  0.00    +0.000 C 
ATOM     20  C18 UNL     1       1.167   2.059   1.812  0.00  0.00    +0.000 C 
ATOM     21  C19 UNL     1       2.469   0.056   0.944  0.00  0.00    +0.000 C 
BRANCH  21  22
ATOM     22  C20 UNL     1       3.250  -0.265   2.187  0.00  0.00    +0.000 C 
ATOM     23  C21 UNL     1       4.697   0.185   2.064  0.00  0.00    +0.000 C 
ENDBRANCH  21  22
ENDBRANCH  17  19
ENDBRANCH   6  17
TORSDOF 5
