REMARK  Name = laboratorio_evolutivo\Gen9_Mutante_3.pdb
REMARK  9 active torsions:
REMARK  status: ('A' for Active; 'I' for Inactive)
REMARK    1  A    between atoms: C1_1  and  C2_2
REMARK    2  A    between atoms: C2_2  and  C3_3
REMARK    3  A    between atoms: C2_2  and  C4_4
REMARK    4  A    between atoms: C4_4  and  C5_5
REMARK    5  A    between atoms: C5_5  and  C6_7
REMARK    6  A    between atoms: C7_8  and  C8_9
REMARK    7  A    between atoms: C11_12  and  C12_13
REMARK    8  A    between atoms: C16_19  and  N2_20
REMARK    9  A    between atoms: N2_20  and  C17_21
REMARK                            x       y       z     vdW  Elec       q    Type
REMARK                         _______ _______ _______ _____ _____    ______ ____
ROOT
ATOM      1  C6  UNL     1      -0.102   1.079   0.144  0.00  0.00    +0.000 C 
ATOM      2  C7  UNL     1      -0.746   2.476  -0.024  0.00  0.00    +0.000 C 
ATOM      3  C8  UNL     1      -1.951   2.667   0.896  0.00  0.00    +0.000 C 
ATOM      4  C9  UNL     1      -1.139   2.596  -1.503  0.00  0.00    +0.000 C 
ATOM      5  C10 UNL     1      -0.550   1.373  -2.198  0.00  0.00    +0.000 C 
ATOM      6  C11 UNL     1      -0.484   0.278  -1.120  0.00  0.00    +0.000 C 
ENDROOT
BRANCH   6   7
ATOM      7  C12 UNL     1      -1.740  -0.566  -0.925  0.00  0.00    +0.000 C 
ATOM      8  C13 UNL     1      -2.959  -0.266  -1.532  0.00  0.00    +0.000 C 
ATOM      9  N1  UNL     1      -4.092  -0.992  -1.400  0.00  0.00    +0.000 NA
ATOM     10  C14 UNL     1      -4.024  -2.092  -0.633  0.00  0.00    +0.000 C 
ATOM     11  F1  UNL     1      -5.132  -2.835  -0.510  0.00  0.00    +0.000 F 
ATOM     12  C15 UNL     1      -2.880  -2.504   0.012  0.00  0.00    +0.000 C 
ATOM     13  C16 UNL     1      -1.735  -1.716  -0.115  0.00  0.00    +0.000 C 
BRANCH  13  14
ATOM     14  N2  UNL     1      -0.495  -2.165   0.464  0.00  0.00    +0.000 N 
ATOM     15  H   UNL     1       0.327  -2.298  -0.061  0.00  0.00    +0.000 HD
BRANCH  14  16
ATOM     16  C17 UNL     1      -0.566  -2.385   1.786  0.00  0.00    +0.000 C 
ATOM     17  N3  UNL     1      -0.612  -2.584   2.924  0.00  0.00    +0.000 NA
ENDBRANCH  14  16
ENDBRANCH  13  14
ENDBRANCH   6   7
BRANCH   1  18
ATOM     18  C5  UNL     1       1.423   1.216   0.243  0.00  0.00    +0.000 C 
ATOM     19  O1  UNL     1       2.049   1.984  -0.491  0.00  0.00    +0.000 OA
BRANCH  18  20
ATOM     20  C4  UNL     1       2.157   0.352   1.253  0.00  0.00    +0.000 C 
BRANCH  20  22
ATOM     21  C1  UNL     1       3.322  -1.824   1.700  0.00  0.00    +0.000 C 
ATOM     22  C2  UNL     1       2.858  -0.853   0.612  0.00  0.00    +0.000 C 
ATOM     23  C3  UNL     1       4.058  -0.437  -0.242  0.00  0.00    +0.000 C 
ENDBRANCH  20  22
ENDBRANCH  18  20
ENDBRANCH   1  18
TORSDOF 6
