REMARK  Name = laboratorio_evolutivo\Gen9_Mutante_10.pdb
REMARK  9 active torsions:
REMARK  status: ('A' for Active; 'I' for Inactive)
REMARK    1  A    between atoms: C1_1  and  C2_2
REMARK    2  A    between atoms: C2_2  and  C3_3
REMARK    3  A    between atoms: C2_2  and  C4_4
REMARK    4  A    between atoms: C4_4  and  C5_5
REMARK    5  A    between atoms: C5_5  and  C6_7
REMARK    6  A    between atoms: C7_8  and  C8_9
REMARK    7  A    between atoms: C11_12  and  C12_13
REMARK    8  A    between atoms: C13_14  and  N1_15
REMARK    9  A    between atoms: N1_15  and  C14_16
REMARK                            x       y       z     vdW  Elec       q    Type
REMARK                         _______ _______ _______ _____ _____    ______ ____
ROOT
ATOM      1  C6  UNL     1      -0.123   0.611   0.390  0.00  0.00    +0.000 C 
ATOM      2  C7  UNL     1      -0.638   2.068   0.477  0.00  0.00    +0.000 C 
ATOM      3  C8  UNL     1      -0.947   2.639  -0.908  0.00  0.00    +0.000 C 
ATOM      4  C9  UNL     1       0.484   2.854   1.166  0.00  0.00    +0.000 C 
ATOM      5  C10 UNL     1       1.759   2.110   0.794  0.00  0.00    +0.000 C 
ATOM      6  C11 UNL     1       1.340   0.639   0.886  0.00  0.00    +0.000 C 
ENDROOT
BRANCH   6   7
ATOM      7  C12 UNL     1       2.279  -0.334   0.204  0.00  0.00    +0.000 C 
ATOM      8  C13 UNL     1       2.552  -0.376  -1.171  0.00  0.00    +0.000 C 
ATOM      9  C15 UNL     1       3.467  -1.301  -1.684  0.00  0.00    +0.000 C 
ATOM     10  C16 UNL     1       4.051  -2.199  -0.812  0.00  0.00    +0.000 C 
ATOM     11  N3  UNL     1       3.803  -2.214   0.507  0.00  0.00    +0.000 NA
ATOM     12  C17 UNL     1       2.938  -1.290   0.979  0.00  0.00    +0.000 C 
ATOM     13  F1  UNL     1       2.717  -1.318   2.304  0.00  0.00    +0.000 F 
BRANCH   8  14
ATOM     14  N1  UNL     1       1.989   0.609  -2.056  0.00  0.00    +0.000 N 
ATOM     15  H   UNL     1       2.121   1.577  -1.935  0.00  0.00    +0.000 HD
BRANCH  14  16
ATOM     16  C14 UNL     1       1.269   0.089  -3.060  0.00  0.00    +0.000 C 
ATOM     17  N2  UNL     1       0.659  -0.357  -3.935  0.00  0.00    +0.000 NA
ENDBRANCH  14  16
ENDBRANCH   8  14
ENDBRANCH   6   7
BRANCH   1  18
ATOM     18  C5  UNL     1      -0.955  -0.311   1.277  0.00  0.00    +0.000 C 
ATOM     19  O1  UNL     1      -1.162  -0.054   2.463  0.00  0.00    +0.000 OA
BRANCH  18  20
ATOM     20  C4  UNL     1      -1.524  -1.564   0.638  0.00  0.00    +0.000 C 
BRANCH  20  22
ATOM     21  C1  UNL     1      -3.055  -2.431  -1.156  0.00  0.00    +0.000 C 
ATOM     22  C2  UNL     1      -2.749  -1.253  -0.231  0.00  0.00    +0.000 C 
ATOM     23  C3  UNL     1      -3.973  -0.931   0.632  0.00  0.00    +0.000 C 
ENDBRANCH  20  22
ENDBRANCH  18  20
ENDBRANCH   1  18
TORSDOF 6
