REMARK  Name = laboratorio_evolutivo\Gen9_Mutante_2.pdb
REMARK  10 active torsions:
REMARK  status: ('A' for Active; 'I' for Inactive)
REMARK    1  A    between atoms: C1_1  and  C2_2
REMARK    2  A    between atoms: C4_4  and  N1_5
REMARK    3  A    between atoms: N1_5  and  C5_6
REMARK    4  A    between atoms: C6_8  and  C7_9
REMARK    5  A    between atoms: C10_12  and  C11_13
REMARK    6  A    between atoms: C12_14  and  C13_15
REMARK    7  A    between atoms: C13_15  and  C14_17
REMARK    8  A    between atoms: C14_17  and  C15_18
REMARK    9  A    between atoms: C15_18  and  C16_19
REMARK   10  A    between atoms: C15_18  and  C17_20
REMARK                            x       y       z     vdW  Elec       q    Type
REMARK                         _______ _______ _______ _____ _____    ______ ____
ROOT
ATOM      1  C7  UNL     1      -1.222   0.234  -1.440  0.00  0.00    +0.000 C 
ATOM      2  C8  UNL     1      -1.759  -0.960  -2.262  0.00  0.00    +0.000 C 
ATOM      3  C9  UNL     1      -0.549  -1.830  -2.584  0.00  0.00    +0.000 C 
ATOM      4  C10 UNL     1       0.611  -0.839  -2.614  0.00  0.00    +0.000 C 
ATOM      5  C11 UNL     1       1.976  -1.509  -2.639  0.00  0.00    +0.000 C 
ATOM      6  C12 UNL     1       0.326   0.098  -1.426  0.00  0.00    +0.000 C 
ENDROOT
BRANCH   1  11
ATOM      7  C1  UNL     1      -3.614   1.845   3.570  0.00  0.00    +0.000 C 
ATOM      8  C2  UNL     1      -3.020   1.365   2.279  0.00  0.00    +0.000 C 
ATOM      9  C3  UNL     1      -2.812   0.009   2.067  0.00  0.00    +0.000 C 
ATOM     10  C4  UNL     1      -2.267  -0.418   0.851  0.00  0.00    +0.000 C 
ATOM     11  C6  UNL     1      -1.889   0.529  -0.113  0.00  0.00    +0.000 C 
ATOM     12  C18 UNL     1      -2.140   1.864   0.207  0.00  0.00    +0.000 C 
ATOM     13  N3  UNL     1      -2.687   2.296   1.363  0.00  0.00    +0.000 NA
BRANCH  10  14
ATOM     14  N1  UNL     1      -1.931  -1.802   0.654  0.00  0.00    +0.000 N 
ATOM     15  H   UNL     1      -1.108  -2.070   0.185  0.00  0.00    +0.000 HD
BRANCH  14  16
ATOM     16  C5  UNL     1      -2.787  -2.708   1.136  0.00  0.00    +0.000 C 
ATOM     17  N2  UNL     1      -3.520  -3.493   1.567  0.00  0.00    +0.000 NA
ENDBRANCH  14  16
ENDBRANCH  10  14
ENDBRANCH   1  11
BRANCH   6  18
ATOM     18  C13 UNL     1       0.891  -0.388  -0.088  0.00  0.00    +0.000 C 
ATOM     19  O1  UNL     1       0.742  -1.548   0.306  0.00  0.00    +0.000 OA
BRANCH  18  20
ATOM     20  C14 UNL     1       1.614   0.633   0.773  0.00  0.00    +0.000 C 
BRANCH  20  21
ATOM     21  C15 UNL     1       3.056   0.869   0.310  0.00  0.00    +0.000 C 
ATOM     22  C16 UNL     1       3.946  -0.338   0.615  0.00  0.00    +0.000 C 
ATOM     23  C17 UNL     1       3.625   2.117   0.987  0.00  0.00    +0.000 C 
ENDBRANCH  20  21
ENDBRANCH  18  20
ENDBRANCH   6  18
TORSDOF 6
