REMARK  Name = laboratorio_evolutivo\Gen9_Mutante_5.pdb
REMARK  9 active torsions:
REMARK  status: ('A' for Active; 'I' for Inactive)
REMARK    1  A    between atoms: C3_3  and  C4_4
REMARK    2  A    between atoms: C6_6  and  C7_7
REMARK    3  A    between atoms: C7_7  and  C8_8
REMARK    4  A    between atoms: C10_11  and  C11_12
REMARK    5  A    between atoms: C14_15  and  C15_16
REMARK    6  A    between atoms: C16_17  and  C17_18
REMARK    7  A    between atoms: C17_18  and  C18_20
REMARK    8  A    between atoms: C18_20  and  C19_21
REMARK    9  A    between atoms: C20_22  and  C21_23
REMARK                            x       y       z     vdW  Elec       q    Type
REMARK                         _______ _______ _______ _____ _____    ______ ____
ROOT
ATOM      1  C11 UNL     1       0.342  -1.215  -0.628  0.00  0.00    +0.000 C 
ATOM      2  C12 UNL     1       0.324  -2.722  -0.326  0.00  0.00    +0.000 C 
ATOM      3  C13 UNL     1       1.738  -2.998   0.165  0.00  0.00    +0.000 C 
ATOM      4  C14 UNL     1       2.023  -1.799   1.067  0.00  0.00    +0.000 C 
ATOM      5  C15 UNL     1       3.486  -1.686   1.465  0.00  0.00    +0.000 C 
ATOM      6  C16 UNL     1       1.396  -0.591   0.329  0.00  0.00    +0.000 C 
ENDROOT
BRANCH   1  12
ATOM      7  C4  UNL     1      -1.942  -0.477   0.409  0.00  0.00    +0.000 C 
ATOM      8  C5  UNL     1      -3.145   0.223   0.209  0.00  0.00    +0.000 C 
ATOM      9  C6  UNL     1      -3.400   0.844  -1.009  0.00  0.00    +0.000 C 
ATOM     10  N1  UNL     1      -2.519   0.812  -2.026  0.00  0.00    +0.000 NA
ATOM     11  C9  UNL     1      -1.370   0.131  -1.826  0.00  0.00    +0.000 C 
ATOM     12  C10 UNL     1      -1.009  -0.527  -0.644  0.00  0.00    +0.000 C 
BRANCH   7  15
ATOM     13  C1  UNL     1      -3.578  -2.199   3.162  0.00  0.00    +0.000 C 
ATOM     14  C2  UNL     1      -2.651  -1.640   2.446  0.00  0.00    +0.000 C 
ATOM     15  C3  UNL     1      -1.713  -1.093   1.727  0.00  0.00    +0.000 C 
ENDBRANCH   7  15
BRANCH   9  16
ATOM     16  C7  UNL     1      -4.673   1.618  -1.226  0.00  0.00    +0.000 C 
ATOM     17  C8  UNL     1      -4.534   3.061  -0.764  0.00  0.00    +0.000 C 
ENDBRANCH   9  16
ENDBRANCH   1  12
BRANCH   6  18
ATOM     18  C17 UNL     1       2.391   0.234  -0.488  0.00  0.00    +0.000 C 
ATOM     19  O1  UNL     1       3.103  -0.266  -1.358  0.00  0.00    +0.000 OA
BRANCH  18  20
ATOM     20  C18 UNL     1       2.453   1.707  -0.221  0.00  0.00    +0.000 C 
ATOM     21  C19 UNL     1       1.183   2.473  -0.437  0.00  0.00    +0.000 C 
ATOM     22  C20 UNL     1       3.607   2.301   0.134  0.00  0.00    +0.000 C 
ATOM     23  C21 UNL     1       4.948   1.668   0.339  0.00  0.00    +0.000 C 
ENDBRANCH  18  20
ENDBRANCH   6  18
TORSDOF 5
