REMARK  Name = laboratorio_evolutivo\Gen9_Mutante_9.pdb
REMARK  9 active torsions:
REMARK  status: ('A' for Active; 'I' for Inactive)
REMARK    1  A    between atoms: C3_3  and  C4_4
REMARK    2  A    between atoms: C6_6  and  C7_7
REMARK    3  A    between atoms: C8_9  and  C9_10
REMARK    4  A    between atoms: C10_11  and  C11_12
REMARK    5  A    between atoms: C14_15  and  C15_16
REMARK    6  A    between atoms: C16_17  and  C17_18
REMARK    7  A    between atoms: C17_18  and  C18_20
REMARK    8  A    between atoms: C18_20  and  C19_21
REMARK    9  A    between atoms: C20_22  and  C21_23
REMARK                            x       y       z     vdW  Elec       q    Type
REMARK                         _______ _______ _______ _____ _____    ______ ____
ROOT
ATOM      1  C11 UNL     1      -0.488  -0.326   1.194  0.00  0.00    +0.000 C 
ATOM      2  C12 UNL     1      -0.809  -1.406   2.234  0.00  0.00    +0.000 C 
ATOM      3  C13 UNL     1       0.434  -1.399   3.113  0.00  0.00    +0.000 C 
ATOM      4  C14 UNL     1       1.605  -1.248   2.132  0.00  0.00    +0.000 C 
ATOM      5  C15 UNL     1       2.192  -2.608   1.755  0.00  0.00    +0.000 C 
ATOM      6  C16 UNL     1       1.027  -0.502   0.900  0.00  0.00    +0.000 C 
ENDROOT
BRANCH   1  14
ATOM      7  C4  UNL     1      -2.010   0.981  -0.382  0.00  0.00    +0.000 C 
ATOM      8  C5  UNL     1      -2.841   1.055  -1.508  0.00  0.00    +0.000 C 
ATOM      9  C6  UNL     1      -3.040  -0.071  -2.281  0.00  0.00    +0.000 C 
ATOM     10  C7  UNL     1      -3.935  -0.023  -3.481  0.00  0.00    +0.000 C 
ATOM     11  N1  UNL     1      -2.458  -1.247  -1.986  0.00  0.00    +0.000 NA
ATOM     12  C8  UNL     1      -1.648  -1.338  -0.896  0.00  0.00    +0.000 C 
ATOM     13  C9  UNL     1      -1.131  -2.732  -0.702  0.00  0.00    +0.000 C 
ATOM     14  C10 UNL     1      -1.385  -0.249  -0.039  0.00  0.00    +0.000 C 
BRANCH   7  17
ATOM     15  C1  UNL     1      -3.751   3.801   1.109  0.00  0.00    +0.000 C 
ATOM     16  C2  UNL     1      -2.788   3.010   0.747  0.00  0.00    +0.000 C 
ATOM     17  C3  UNL     1      -1.813   2.228   0.380  0.00  0.00    +0.000 C 
ENDBRANCH   7  17
ENDBRANCH   1  14
BRANCH   6  18
ATOM     18  C17 UNL     1       1.721   0.855   0.751  0.00  0.00    +0.000 C 
ATOM     19  O1  UNL     1       1.485   1.773   1.544  0.00  0.00    +0.000 OA
BRANCH  18  20
ATOM     20  C18 UNL     1       2.719   1.102  -0.360  0.00  0.00    +0.000 C 
ATOM     21  C19 UNL     1       2.997   2.566  -0.582  0.00  0.00    +0.000 C 
ATOM     22  C20 UNL     1       3.299   0.091  -1.036  0.00  0.00    +0.000 C 
ATOM     23  C21 UNL     1       4.310   0.185  -2.140  0.00  0.00    +0.000 C 
ENDBRANCH  18  20
ENDBRANCH   6  18
TORSDOF 4
