REMARK  Name = laboratorio_evolutivo\Gen9_Mutante_4.pdb
REMARK  8 active torsions:
REMARK  status: ('A' for Active; 'I' for Inactive)
REMARK    1  A    between atoms: C3_3  and  C4_4
REMARK    2  A    between atoms: C6_6  and  C7_7
REMARK    3  A    between atoms: C9_11  and  C10_12
REMARK    4  A    between atoms: C13_15  and  C14_16
REMARK    5  A    between atoms: C15_17  and  C16_18
REMARK    6  A    between atoms: C16_18  and  C17_20
REMARK    7  A    between atoms: C17_20  and  C18_21
REMARK    8  A    between atoms: C19_22  and  C20_23
REMARK                            x       y       z     vdW  Elec       q    Type
REMARK                         _______ _______ _______ _____ _____    ______ ____
ROOT
ATOM      1  C10 UNL     1       0.662  -0.661  -0.686  0.00  0.00    +0.000 C 
ATOM      2  C11 UNL     1       1.252  -1.267  -1.975  0.00  0.00    +0.000 C 
ATOM      3  C12 UNL     1       0.051  -1.836  -2.716  0.00  0.00    +0.000 C 
ATOM      4  C13 UNL     1      -1.033  -0.788  -2.469  0.00  0.00    +0.000 C 
ATOM      5  C14 UNL     1      -2.424  -1.258  -2.865  0.00  0.00    +0.000 C 
ATOM      6  C15 UNL     1      -0.841  -0.380  -0.992  0.00  0.00    +0.000 C 
ENDROOT
BRANCH   1  14
ATOM      7  C4  UNL     1       2.088   0.580   1.059  0.00  0.00    +0.000 C 
ATOM      8  C5  UNL     1       2.743   1.751   1.460  0.00  0.00    +0.000 C 
ATOM      9  C6  UNL     1       2.741   2.860   0.622  0.00  0.00    +0.000 C 
ATOM     10  C7  UNL     1       3.453   4.117   1.026  0.00  0.00    +0.000 C 
ATOM     11  N1  UNL     1       2.120   2.857  -0.571  0.00  0.00    +0.000 NA
ATOM     12  C8  UNL     1       1.492   1.720  -0.941  0.00  0.00    +0.000 C 
ATOM     13  F1  UNL     1       0.881   1.750  -2.135  0.00  0.00    +0.000 F 
ATOM     14  C9  UNL     1       1.427   0.549  -0.182  0.00  0.00    +0.000 C 
BRANCH   7  17
ATOM     15  C1  UNL     1       3.449  -2.731   1.470  0.00  0.00    +0.000 C 
ATOM     16  C2  UNL     1       2.795  -1.639   1.731  0.00  0.00    +0.000 C 
ATOM     17  C3  UNL     1       2.137  -0.550   1.991  0.00  0.00    +0.000 C 
ENDBRANCH   7  17
ENDBRANCH   1  14
BRANCH   6  18
ATOM     18  C16 UNL     1      -1.696  -1.194  -0.013  0.00  0.00    +0.000 C 
ATOM     19  O1  UNL     1      -1.623  -2.424   0.031  0.00  0.00    +0.000 OA
BRANCH  18  20
ATOM     20  C17 UNL     1      -2.596  -0.487   0.971  0.00  0.00    +0.000 C 
ATOM     21  C18 UNL     1      -2.746  -1.222   2.274  0.00  0.00    +0.000 C 
ATOM     22  C19 UNL     1      -3.217   0.661   0.632  0.00  0.00    +0.000 C 
ATOM     23  C20 UNL     1      -4.142   1.481   1.482  0.00  0.00    +0.000 C 
ENDBRANCH  18  20
ENDBRANCH   6  18
TORSDOF 4
