REMARK  Name = laboratorio_evolutivo\Gen9_Mutante_6.pdb
REMARK  9 active torsions:
REMARK  status: ('A' for Active; 'I' for Inactive)
REMARK    1  A    between atoms: C3_3  and  C4_4
REMARK    2  A    between atoms: C6_6  and  C7_7
REMARK    3  A    between atoms: C9_10  and  C10_11
REMARK    4  A    between atoms: C13_14  and  C14_15
REMARK    5  A    between atoms: C15_16  and  C16_17
REMARK    6  A    between atoms: C16_17  and  C17_19
REMARK    7  A    between atoms: C17_19  and  C20_22
REMARK    8  A    between atoms: C18_20  and  C19_21
REMARK    9  A    between atoms: C20_22  and  C21_23
REMARK                            x       y       z     vdW  Elec       q    Type
REMARK                         _______ _______ _______ _____ _____    ______ ____
ROOT
ATOM      1  C10 UNL     1      -0.202  -1.413   1.236  0.00  0.00    +0.000 C 
ATOM      2  C11 UNL     1      -0.525  -2.809   1.820  0.00  0.00    +0.000 C 
ATOM      3  C12 UNL     1      -0.076  -3.817   0.769  0.00  0.00    +0.000 C 
ATOM      4  C13 UNL     1       1.131  -3.140   0.130  0.00  0.00    +0.000 C 
ATOM      5  C14 UNL     1       1.526  -3.778  -1.196  0.00  0.00    +0.000 C 
ATOM      6  C15 UNL     1       0.673  -1.673  -0.019  0.00  0.00    +0.000 C 
ENDROOT
BRANCH   1  13
ATOM      7  C4  UNL     1      -1.562   0.780   1.257  0.00  0.00    +0.000 C 
ATOM      8  C5  UNL     1      -2.714   1.472   0.848  0.00  0.00    +0.000 C 
ATOM      9  C6  UNL     1      -3.689   0.818   0.105  0.00  0.00    +0.000 C 
ATOM     10  C7  UNL     1      -4.922   1.552  -0.332  0.00  0.00    +0.000 C 
ATOM     11  N1  UNL     1      -3.583  -0.479  -0.241  0.00  0.00    +0.000 NA
ATOM     12  C8  UNL     1      -2.474  -1.137   0.166  0.00  0.00    +0.000 C 
ATOM     13  C9  UNL     1      -1.431  -0.579   0.912  0.00  0.00    +0.000 C 
BRANCH   7  16
ATOM     14  C1  UNL     1       0.076   3.998   1.674  0.00  0.00    +0.000 C 
ATOM     15  C2  UNL     1      -0.239   2.752   1.856  0.00  0.00    +0.000 C 
ATOM     16  C3  UNL     1      -0.545   1.500   2.043  0.00  0.00    +0.000 C 
ENDBRANCH   7  16
ENDBRANCH   1  13
BRANCH   6  17
ATOM     17  C16 UNL     1       1.864  -0.714  -0.046  0.00  0.00    +0.000 C 
ATOM     18  O1  UNL     1       2.836  -0.911   0.690  0.00  0.00    +0.000 OA
BRANCH  17  19
ATOM     19  C17 UNL     1       1.873   0.493  -0.959  0.00  0.00    +0.000 C 
ATOM     20  C18 UNL     1       0.773   0.905  -1.621  0.00  0.00    +0.000 C 
ATOM     21  C19 UNL     1       0.653   2.104  -2.512  0.00  0.00    +0.000 C 
BRANCH  19  22
ATOM     22  C20 UNL     1       3.221   1.177  -1.071  0.00  0.00    +0.000 C 
ATOM     23  C21 UNL     1       3.414   2.255  -0.014  0.00  0.00    +0.000 C 
ENDBRANCH  19  22
ENDBRANCH  17  19
ENDBRANCH   6  17
TORSDOF 5
