REMARK  Name = laboratorio_evolutivo\Gen9_Mutante_7.pdb
REMARK  8 active torsions:
REMARK  status: ('A' for Active; 'I' for Inactive)
REMARK    1  A    between atoms: C3_3  and  C4_4
REMARK    2  A    between atoms: C5_5  and  C6_6
REMARK    3  A    between atoms: C9_9  and  C10_10
REMARK    4  A    between atoms: C11_11  and  C12_12
REMARK    5  A    between atoms: C12_12  and  C13_14
REMARK    6  A    between atoms: C13_14  and  C14_15
REMARK    7  A    between atoms: C15_16  and  C16_17
REMARK    8  A    between atoms: C18_20  and  C19_21
REMARK                            x       y       z     vdW  Elec       q    Type
REMARK                         _______ _______ _______ _____ _____    ______ ____
ROOT
ATOM      1  C6  UNL     1      -0.542  -1.010  -1.161  0.00  0.00    +0.000 C 
ATOM      2  C7  UNL     1       0.246  -1.245  -2.459  0.00  0.00    +0.000 C 
ATOM      3  C8  UNL     1       0.674  -2.698  -2.337  0.00  0.00    +0.000 C 
ATOM      4  C9  UNL     1       1.117  -2.823  -0.879  0.00  0.00    +0.000 C 
ATOM      5  C10 UNL     1       0.964  -4.246  -0.354  0.00  0.00    +0.000 C 
ATOM      6  C11 UNL     1       0.266  -1.794  -0.091  0.00  0.00    +0.000 C 
ENDROOT
BRANCH   1   8
ATOM      7  C4  UNL     1      -1.914   0.673   0.198  0.00  0.00    +0.000 C 
ATOM      8  C5  UNL     1      -1.018   0.394  -0.856  0.00  0.00    +0.000 C 
ATOM      9  C17 UNL     1      -0.610   1.488  -1.625  0.00  0.00    +0.000 C 
ATOM     10  N1  UNL     1      -0.977   2.773  -1.412  0.00  0.00    +0.000 NA
ATOM     11  C18 UNL     1      -1.818   3.013  -0.380  0.00  0.00    +0.000 C 
ATOM     12  C19 UNL     1      -2.228   4.433  -0.135  0.00  0.00    +0.000 C 
ATOM     13  C20 UNL     1      -2.306   1.998   0.432  0.00  0.00    +0.000 C 
ATOM     14  F1  UNL     1      -3.164   2.295   1.421  0.00  0.00    +0.000 F 
BRANCH   7  17
ATOM     15  C1  UNL     1      -1.867  -0.627   3.557  0.00  0.00    +0.000 C 
ATOM     16  C2  UNL     1      -2.184  -0.501   2.305  0.00  0.00    +0.000 C 
ATOM     17  C3  UNL     1      -2.474  -0.388   1.043  0.00  0.00    +0.000 C 
ENDBRANCH   7  17
ENDBRANCH   1   8
BRANCH   6  18
ATOM     18  C12 UNL     1       1.152  -1.068   0.930  0.00  0.00    +0.000 C 
ATOM     19  O1  UNL     1       1.421  -1.613   2.005  0.00  0.00    +0.000 OA
BRANCH  18  20
ATOM     20  C13 UNL     1       1.757   0.266   0.645  0.00  0.00    +0.000 C 
ATOM     21  C14 UNL     1       2.806   0.370  -0.410  0.00  0.00    +0.000 C 
ATOM     22  C15 UNL     1       1.388   1.257   1.479  0.00  0.00    +0.000 C 
ATOM     23  C16 UNL     1       1.860   2.674   1.438  0.00  0.00    +0.000 C 
ENDBRANCH  18  20
ENDBRANCH   6  18
TORSDOF 4
