REMARK  Name = laboratorio_evolutivo\Gen9_Mutante_8.pdb
REMARK  9 active torsions:
REMARK  status: ('A' for Active; 'I' for Inactive)
REMARK    1  A    between atoms: C3_3  and  C4_4
REMARK    2  A    between atoms: C5_5  and  C6_6
REMARK    3  A    between atoms: C9_9  and  C10_10
REMARK    4  A    between atoms: C11_11  and  C12_12
REMARK    5  A    between atoms: C12_12  and  C13_14
REMARK    6  A    between atoms: C13_14  and  C14_15
REMARK    7  A    between atoms: C15_16  and  C16_17
REMARK    8  A    between atoms: C18_20  and  C19_21
REMARK    9  A    between atoms: C20_22  and  C21_23
REMARK                            x       y       z     vdW  Elec       q    Type
REMARK                         _______ _______ _______ _____ _____    ______ ____
ROOT
ATOM      1  C6  UNL     1      -0.008  -0.816   0.297  0.00  0.00    +0.000 C 
ATOM      2  C7  UNL     1      -0.169  -2.044  -0.606  0.00  0.00    +0.000 C 
ATOM      3  C8  UNL     1       1.140  -2.829  -0.465  0.00  0.00    +0.000 C 
ATOM      4  C9  UNL     1       2.138  -1.923   0.279  0.00  0.00    +0.000 C 
ATOM      5  C10 UNL     1       2.369  -2.395   1.715  0.00  0.00    +0.000 C 
ATOM      6  C11 UNL     1       1.511  -0.512   0.217  0.00  0.00    +0.000 C 
ENDROOT
BRANCH   1   8
ATOM      7  C4  UNL     1      -2.396   0.084   0.607  0.00  0.00    +0.000 C 
ATOM      8  C5  UNL     1      -1.071   0.259   0.132  0.00  0.00    +0.000 C 
ATOM      9  C17 UNL     1      -0.809   1.480  -0.476  0.00  0.00    +0.000 C 
ATOM     10  N1  UNL     1      -1.704   2.480  -0.641  0.00  0.00    +0.000 NA
ATOM     11  C18 UNL     1      -2.961   2.291  -0.190  0.00  0.00    +0.000 C 
ATOM     12  C19 UNL     1      -3.902   3.434  -0.438  0.00  0.00    +0.000 C 
ATOM     13  C20 UNL     1      -3.355   1.122   0.470  0.00  0.00    +0.000 C 
ATOM     14  C21 UNL     1      -4.768   0.966   0.973  0.00  0.00    +0.000 C 
BRANCH   7  17
ATOM     15  C1  UNL     1      -4.421  -2.892   0.243  0.00  0.00    +0.000 C 
ATOM     16  C2  UNL     1      -3.603  -2.031   0.767  0.00  0.00    +0.000 C 
ATOM     17  C3  UNL     1      -2.776  -1.170   1.285  0.00  0.00    +0.000 C 
ENDBRANCH   7  17
ENDBRANCH   1   8
BRANCH   6  18
ATOM     18  C12 UNL     1       2.029   0.149  -1.067  0.00  0.00    +0.000 C 
ATOM     19  O1  UNL     1       1.471  -0.027  -2.151  0.00  0.00    +0.000 OA
BRANCH  18  20
ATOM     20  C13 UNL     1       3.263   1.027  -1.024  0.00  0.00    +0.000 C 
ATOM     21  C14 UNL     1       3.437   1.869  -2.260  0.00  0.00    +0.000 C 
ATOM     22  C15 UNL     1       4.101   1.022   0.031  0.00  0.00    +0.000 C 
ATOM     23  C16 UNL     1       5.366   1.808   0.189  0.00  0.00    +0.000 C 
ENDBRANCH  18  20
ENDBRANCH   6  18
TORSDOF 4
