REMARK  Name = UDP
REMARK  11 active torsions:
REMARK  status: ('A' for Active; 'I' for Inactive)
REMARK    1  A    between atoms: N_1  and  C_9
REMARK    2  A    between atoms: C_10  and  O_11
REMARK    3  A    between atoms: C_12  and  O_15
REMARK    4  A    between atoms: C_13  and  C_16
REMARK    5  A    between atoms: C_16  and  O_17
REMARK    6  A    between atoms: O_17  and  P_18
REMARK    7  A    between atoms: P_18  and  O_20
REMARK    8  A    between atoms: P_18  and  O_21
REMARK    9  A    between atoms: O_21  and  P_22
REMARK   10  A    between atoms: P_22  and  O_24
REMARK   11  A    between atoms: P_22  and  O_25
REMARK                            x       y       z     vdW  Elec       q    Type
REMARK                         _______ _______ _______ _____ _____    ______ ____
ROOT
ATOM      1  C   UNL     1      -2.221   0.331   0.929  0.00  0.00    +0.255 C 
ATOM      2  C   UNL     1      -2.132  -1.023   1.655  0.00  0.00    +0.195 C 
ATOM      3  C   UNL     1      -0.639  -1.255   1.803  0.00  0.00    +0.178 C 
ATOM      4  C   UNL     1      -0.062   0.139   1.590  0.00  0.00    +0.178 C 
ATOM      5  O   UNL     1      -0.917   0.829   0.709  0.00  0.00    -0.346 OA
ENDROOT
BRANCH   1   6
ATOM      6  N   UNL     1      -2.944   0.200  -0.353  0.00  0.00    -0.271 N 
ATOM      7  C   UNL     1      -2.368  -0.391  -1.454  0.00  0.00    +0.331 A 
ATOM      8  N   UNL     1      -3.070  -0.513  -2.615  0.00  0.00    -0.275 N 
ATOM      9  C   UNL     1      -4.351  -0.071  -2.711  0.00  0.00    +0.254 A 
ATOM     10  C   UNL     1      -4.965   0.514  -1.609  0.00  0.00    +0.088 A 
ATOM     11  C   UNL     1      -4.239   0.636  -0.427  0.00  0.00    +0.098 A 
ATOM     12  O   UNL     1      -1.187  -0.832  -1.403  0.00  0.00    -0.246 OA
ATOM     13  O   UNL     1      -4.983  -0.193  -3.794  0.00  0.00    -0.268 OA
ATOM     14  H   UNL     1      -2.618  -0.959  -3.446  0.00  0.00    +0.173 HD
ENDBRANCH   1   6
BRANCH   2  15
ATOM     15  O   UNL     1      -2.800  -0.986   2.896  0.00  0.00    -0.385 OA
ATOM     16  H   UNL     1      -2.387  -0.271   3.448  0.00  0.00    +0.210 HD
ENDBRANCH   2  15
BRANCH   3  17
ATOM     17  O   UNL     1      -0.288  -1.755   3.068  0.00  0.00    -0.386 OA
ATOM     18  H   UNL     1      -0.560  -2.710   3.075  0.00  0.00    +0.210 HD
ENDBRANCH   3  17
BRANCH   4  19
ATOM     19  C   UNL     1       1.355   0.090   1.013  0.00  0.00    +0.206 C 
BRANCH  19  20
ATOM     20  O   UNL     1       1.846   1.404   0.889  0.00  0.00    -0.284 OA
BRANCH  20  21
ATOM     21  P   UNL     1       3.408   1.327   0.212  0.00  0.00    +0.483 P 
ATOM     22  O   UNL     1       3.942   2.737   0.089  0.00  0.00    -0.227 OA
BRANCH  21  23
ATOM     23  O   UNL     1       4.421   0.435   1.238  0.00  0.00    -0.302 OA
ATOM     24  H   UNL     1       4.362   0.894   2.114  0.00  0.00    +0.222 HD
ENDBRANCH  21  23
BRANCH  21  25
ATOM     25  O   UNL     1       3.310   0.619  -1.334  0.00  0.00    -0.186 OA
BRANCH  25  26
ATOM     26  P   UNL     1       4.893   0.248  -1.836  0.00  0.00    +0.481 P 
ATOM     27  O   UNL     1       4.852  -0.177  -3.286  0.00  0.00    -0.227 OA
BRANCH  26  28
ATOM     28  O   UNL     1       5.909   1.595  -1.688  0.00  0.00    -0.302 OA
ATOM     29  H   UNL     1       5.515   2.277  -2.290  0.00  0.00    +0.222 HD
ENDBRANCH  26  28
BRANCH  26  30
ATOM     30  O   UNL     1       5.507  -1.031  -0.912  0.00  0.00    -0.302 OA
ATOM     31  H   UNL     1       6.452  -1.116  -1.195  0.00  0.00    +0.222 HD
ENDBRANCH  26  30
ENDBRANCH  25  26
ENDBRANCH  21  25
ENDBRANCH  20  21
ENDBRANCH  19  20
ENDBRANCH   4  19
TORSDOF 11
