MODEL 1
REMARK VINA RESULT:    -5.115      0.000      0.000
REMARK INTER + INTRA:          -6.208
REMARK INTER:                  -6.161
REMARK INTRA:                  -0.047
REMARK UNBOUND:                -0.047
REMARK  Name = ALL
REMARK  6 active torsions:
REMARK  status: ('A' for Active; 'I' for Inactive)
REMARK    1  A    between atoms: C_1  and  O_7
REMARK    2  A    between atoms: C_2  and  O_8
REMARK    3  A    between atoms: C_3  and  O_9
REMARK    4  A    between atoms: C_4  and  O_10
REMARK    5  A    between atoms: C_5  and  C_6
REMARK    6  A    between atoms: C_6  and  O_12
REMARK                            x       y       z     vdW  Elec       q    Type
REMARK                         _______ _______ _______ _____ _____    ______ ____
ROOT
ATOM      1  C   UNL     1       5.225  12.437  19.189  0.00  0.00    +0.279 C 
ATOM      2  C   UNL     1       5.971  13.787  19.192  0.00  0.00    +0.201 C 
ATOM      3  C   UNL     1       7.199  13.737  18.259  0.00  0.00    +0.179 C 
ATOM      4  C   UNL     1       8.024  12.450  18.489  0.00  0.00    +0.177 C 
ATOM      5  C   UNL     1       7.103  11.206  18.557  0.00  0.00    +0.178 C 
ATOM      6  O   UNL     1       6.108  11.390  19.551  0.00  0.00    -0.341 OA
ENDROOT
BRANCH   1   7
ATOM      7  O   UNL     1       4.187  12.494  20.130  0.00  0.00    -0.365 OA
ATOM      8  H   UNL     1       3.897  11.557  20.285  0.00  0.00    +0.213 HD
ENDBRANCH   1   7
BRANCH   2   9
ATOM      9  O   UNL     1       5.114  14.822  18.784  0.00  0.00    -0.384 OA
ATOM     10  H   UNL     1       4.932  14.683  17.819  0.00  0.00    +0.210 HD
ENDBRANCH   2   9
BRANCH   3  11
ATOM     11  O   UNL     1       6.835  13.889  16.907  0.00  0.00    -0.386 OA
ATOM     12  H   UNL     1       7.608  13.632  16.344  0.00  0.00    +0.210 HD
ENDBRANCH   3  11
BRANCH   4  13
ATOM     13  O   UNL     1       8.970  12.297  17.461  0.00  0.00    -0.386 OA
ATOM     14  H   UNL     1       9.230  13.212  17.174  0.00  0.00    +0.210 HD
ENDBRANCH   4  13
BRANCH   5  15
ATOM     15  C   UNL     1       7.897   9.942  18.917  0.00  0.00    +0.190 C 
BRANCH  15  16
ATOM     16  O   UNL     1       7.253   9.232  19.939  0.00  0.00    -0.392 OA
ATOM     17  H   UNL     1       6.774   9.908  20.484  0.00  0.00    +0.210 HD
ENDBRANCH  15  16
ENDBRANCH   5  15
TORSDOF 6
ENDMDL
MODEL 2
REMARK VINA RESULT:    -4.949      1.928      3.218
REMARK INTER + INTRA:          -6.009
REMARK INTER:                  -5.761
REMARK INTRA:                  -0.249
REMARK UNBOUND:                -0.047
REMARK  Name = ALL
REMARK  6 active torsions:
REMARK  status: ('A' for Active; 'I' for Inactive)
REMARK    1  A    between atoms: C_1  and  O_7
REMARK    2  A    between atoms: C_2  and  O_8
REMARK    3  A    between atoms: C_3  and  O_9
REMARK    4  A    between atoms: C_4  and  O_10
REMARK    5  A    between atoms: C_5  and  C_6
REMARK    6  A    between atoms: C_6  and  O_12
REMARK                            x       y       z     vdW  Elec       q    Type
REMARK                         _______ _______ _______ _____ _____    ______ ____
ROOT
ATOM      1  C   UNL     1       8.711  12.812  19.846  0.00  0.00    +0.279 C 
ATOM      2  C   UNL     1       7.617  13.882  19.660  0.00  0.00    +0.201 C 
ATOM      3  C   UNL     1       6.214  13.241  19.669  0.00  0.00    +0.179 C 
ATOM      4  C   UNL     1       6.166  11.988  18.764  0.00  0.00    +0.177 C 
ATOM      5  C   UNL     1       7.393  11.075  19.017  0.00  0.00    +0.178 C 
ATOM      6  O   UNL     1       8.592  11.813  18.849  0.00  0.00    -0.341 OA
ENDROOT
BRANCH   1   7
ATOM      7  O   UNL     1       9.967  13.423  19.722  0.00  0.00    -0.365 OA
ATOM      8  H   UNL     1      10.146  13.875  20.587  0.00  0.00    +0.213 HD
ENDBRANCH   1   7
BRANCH   2   9
ATOM      9  O   UNL     1       7.698  14.848  20.677  0.00  0.00    -0.384 OA
ATOM     10  H   UNL     1       8.534  15.361  20.524  0.00  0.00    +0.210 HD
ENDBRANCH   2   9
BRANCH   3  11
ATOM     11  O   UNL     1       5.777  12.957  20.977  0.00  0.00    -0.386 OA
ATOM     12  H   UNL     1       4.791  13.047  21.005  0.00  0.00    +0.210 HD
ENDBRANCH   3  11
BRANCH   4  13
ATOM     13  O   UNL     1       4.977  11.276  18.994  0.00  0.00    -0.386 OA
ATOM     14  H   UNL     1       4.649  11.549  19.891  0.00  0.00    +0.210 HD
ENDBRANCH   4  13
BRANCH   5  15
ATOM     15  C   UNL     1       7.425   9.898  18.032  0.00  0.00    +0.190 C 
BRANCH  15  16
ATOM     16  O   UNL     1       6.803  10.249  16.827  0.00  0.00    -0.392 OA
ATOM     17  H   UNL     1       7.483  10.112  16.117  0.00  0.00    +0.210 HD
ENDBRANCH  15  16
ENDBRANCH   5  15
TORSDOF 6
ENDMDL
MODEL 3
REMARK VINA RESULT:    -4.948      1.467      3.414
REMARK INTER + INTRA:          -6.008
REMARK INTER:                  -5.961
REMARK INTRA:                  -0.047
REMARK UNBOUND:                -0.047
REMARK  Name = ALL
REMARK  6 active torsions:
REMARK  status: ('A' for Active; 'I' for Inactive)
REMARK    1  A    between atoms: C_1  and  O_7
REMARK    2  A    between atoms: C_2  and  O_8
REMARK    3  A    between atoms: C_3  and  O_9
REMARK    4  A    between atoms: C_4  and  O_10
REMARK    5  A    between atoms: C_5  and  C_6
REMARK    6  A    between atoms: C_6  and  O_12
REMARK                            x       y       z     vdW  Elec       q    Type
REMARK                         _______ _______ _______ _____ _____    ______ ____
ROOT
ATOM      1  C   UNL     1       5.391  14.168  18.830  0.00  0.00    +0.279 C 
ATOM      2  C   UNL     1       5.206  12.655  19.062  0.00  0.00    +0.201 C 
ATOM      3  C   UNL     1       6.551  11.984  19.408  0.00  0.00    +0.179 C 
ATOM      4  C   UNL     1       7.669  12.440  18.442  0.00  0.00    +0.177 C 
ATOM      5  C   UNL     1       7.642  13.978  18.250  0.00  0.00    +0.178 C 
ATOM      6  O   UNL     1       6.356  14.393  17.819  0.00  0.00    -0.341 OA
ENDROOT
BRANCH   1   7
ATOM      7  O   UNL     1       4.168  14.714  18.412  0.00  0.00    -0.365 OA
ATOM      8  H   UNL     1       3.480  14.018  18.576  0.00  0.00    +0.213 HD
ENDBRANCH   1   7
BRANCH   2   9
ATOM      9  O   UNL     1       4.287  12.427  20.100  0.00  0.00    -0.384 OA
ATOM     10  H   UNL     1       3.761  13.262  20.210  0.00  0.00    +0.210 HD
ENDBRANCH   2   9
BRANCH   3  11
ATOM     11  O   UNL     1       6.908  12.193  20.755  0.00  0.00    -0.386 OA
ATOM     12  H   UNL     1       7.885  12.350  20.799  0.00  0.00    +0.210 HD
ENDBRANCH   3  11
BRANCH   4  13
ATOM     13  O   UNL     1       8.921  12.034  18.932  0.00  0.00    -0.386 OA
ATOM     14  H   UNL     1       8.865  12.067  19.923  0.00  0.00    +0.210 HD
ENDBRANCH   4  13
BRANCH   5  15
ATOM     15  C   UNL     1       8.660  14.425  17.192  0.00  0.00    +0.190 C 
BRANCH  15  16
ATOM     16  O   UNL     1       8.032  15.191  16.200  0.00  0.00    -0.392 OA
ATOM     17  H   UNL     1       7.428  15.817  16.678  0.00  0.00    +0.210 HD
ENDBRANCH  15  16
ENDBRANCH   5  15
TORSDOF 6
ENDMDL
MODEL 4
REMARK VINA RESULT:    -4.917      2.100      4.207
REMARK INTER + INTRA:          -5.970
REMARK INTER:                  -5.730
REMARK INTRA:                  -0.240
REMARK UNBOUND:                -0.047
REMARK  Name = ALL
REMARK  6 active torsions:
REMARK  status: ('A' for Active; 'I' for Inactive)
REMARK    1  A    between atoms: C_1  and  O_7
REMARK    2  A    between atoms: C_2  and  O_8
REMARK    3  A    between atoms: C_3  and  O_9
REMARK    4  A    between atoms: C_4  and  O_10
REMARK    5  A    between atoms: C_5  and  C_6
REMARK    6  A    between atoms: C_6  and  O_12
REMARK                            x       y       z     vdW  Elec       q    Type
REMARK                         _______ _______ _______ _____ _____    ______ ____
ROOT
ATOM      1  C   UNL     1       7.151  10.174  17.490  0.00  0.00    +0.279 C 
ATOM      2  C   UNL     1       8.692  10.166  17.546  0.00  0.00    +0.201 C 
ATOM      3  C   UNL     1       9.192  10.574  18.947  0.00  0.00    +0.179 C 
ATOM      4  C   UNL     1       8.453  11.831  19.461  0.00  0.00    +0.177 C 
ATOM      5  C   UNL     1       6.925  11.707  19.234  0.00  0.00    +0.178 C 
ATOM      6  O   UNL     1       6.655  11.447  17.866  0.00  0.00    -0.341 OA
ENDROOT
BRANCH   1   7
ATOM      7  O   UNL     1       6.746   9.906  16.175  0.00  0.00    -0.365 OA
ATOM      8  H   UNL     1       7.014   8.970  15.983  0.00  0.00    +0.213 HD
ENDBRANCH   1   7
BRANCH   2   9
ATOM      9  O   UNL     1       9.187   8.891  17.224  0.00  0.00    -0.384 OA
ATOM     10  H   UNL     1       9.175   8.818  16.234  0.00  0.00    +0.210 HD
ENDBRANCH   2   9
BRANCH   3  11
ATOM     11  O   UNL     1       9.108   9.508  19.864  0.00  0.00    -0.386 OA
ATOM     12  H   UNL     1       9.630   9.747  20.671  0.00  0.00    +0.210 HD
ENDBRANCH   3  11
BRANCH   4  13
ATOM     13  O   UNL     1       8.727  12.024  20.825  0.00  0.00    -0.386 OA
ATOM     14  H   UNL     1       7.949  12.510  21.207  0.00  0.00    +0.210 HD
ENDBRANCH   4  13
BRANCH   5  15
ATOM     15  C   UNL     1       6.197  13.003  19.618  0.00  0.00    +0.190 C 
BRANCH  15  16
ATOM     16  O   UNL     1       5.885  13.005  20.984  0.00  0.00    -0.392 OA
ATOM     17  H   UNL     1       6.747  13.114  21.463  0.00  0.00    +0.210 HD
ENDBRANCH  15  16
ENDBRANCH   5  15
TORSDOF 6
ENDMDL
MODEL 5
REMARK VINA RESULT:    -4.884      2.236      3.949
REMARK INTER + INTRA:          -5.931
REMARK INTER:                  -5.720
REMARK INTRA:                  -0.211
REMARK UNBOUND:                -0.047
REMARK  Name = ALL
REMARK  6 active torsions:
REMARK  status: ('A' for Active; 'I' for Inactive)
REMARK    1  A    between atoms: C_1  and  O_7
REMARK    2  A    between atoms: C_2  and  O_8
REMARK    3  A    between atoms: C_3  and  O_9
REMARK    4  A    between atoms: C_4  and  O_10
REMARK    5  A    between atoms: C_5  and  C_6
REMARK    6  A    between atoms: C_6  and  O_12
REMARK                            x       y       z     vdW  Elec       q    Type
REMARK                         _______ _______ _______ _____ _____    ______ ____
ROOT
ATOM      1  C   UNL     1       8.916   9.877  19.517  0.00  0.00    +0.279 C 
ATOM      2  C   UNL     1       8.835  11.404  19.314  0.00  0.00    +0.201 C 
ATOM      3  C   UNL     1       7.377  11.896  19.424  0.00  0.00    +0.179 C 
ATOM      4  C   UNL     1       6.421  11.001  18.601  0.00  0.00    +0.177 C 
ATOM      5  C   UNL     1       6.712   9.500  18.854  0.00  0.00    +0.178 C 
ATOM      6  O   UNL     1       8.076   9.216  18.589  0.00  0.00    -0.341 OA
ENDROOT
BRANCH   1   7
ATOM      7  O   UNL     1      10.238   9.463  19.300  0.00  0.00    -0.365 OA
ATOM      8  H   UNL     1      10.717   9.590  20.160  0.00  0.00    +0.213 HD
ENDBRANCH   1   7
BRANCH   2   9
ATOM      9  O   UNL     1       9.627  12.067  20.266  0.00  0.00    -0.384 OA
ATOM     10  H   UNL     1      10.558  11.746  20.143  0.00  0.00    +0.210 HD
ENDBRANCH   2   9
BRANCH   3  11
ATOM     11  O   UNL     1       6.962  12.006  20.765  0.00  0.00    -0.386 OA
ATOM     12  H   UNL     1       5.982  12.148  20.779  0.00  0.00    +0.210 HD
ENDBRANCH   3  11
BRANCH   4  13
ATOM     13  O   UNL     1       5.087  11.299  18.926  0.00  0.00    -0.386 OA
ATOM     14  H   UNL     1       5.090  11.639  19.859  0.00  0.00    +0.210 HD
ENDBRANCH   4  13
BRANCH   5  15
ATOM     15  C   UNL     1       5.860   8.605  17.943  0.00  0.00    +0.190 C 
BRANCH  15  16
ATOM     16  O   UNL     1       4.502   8.720  18.271  0.00  0.00    -0.392 OA
ATOM     17  H   UNL     1       4.301   9.692  18.272  0.00  0.00    +0.210 HD
ENDBRANCH  15  16
ENDBRANCH   5  15
TORSDOF 6
ENDMDL
MODEL 6
REMARK VINA RESULT:    -4.822      2.159      3.904
REMARK INTER + INTRA:          -5.856
REMARK INTER:                  -5.636
REMARK INTRA:                  -0.220
REMARK UNBOUND:                -0.047
REMARK  Name = ALL
REMARK  6 active torsions:
REMARK  status: ('A' for Active; 'I' for Inactive)
REMARK    1  A    between atoms: C_1  and  O_7
REMARK    2  A    between atoms: C_2  and  O_8
REMARK    3  A    between atoms: C_3  and  O_9
REMARK    4  A    between atoms: C_4  and  O_10
REMARK    5  A    between atoms: C_5  and  C_6
REMARK    6  A    between atoms: C_6  and  O_12
REMARK                            x       y       z     vdW  Elec       q    Type
REMARK                         _______ _______ _______ _____ _____    ______ ____
ROOT
ATOM      1  C   UNL     1       9.312  11.479  17.799  0.00  0.00    +0.279 C 
ATOM      2  C   UNL     1       9.354  12.873  18.455  0.00  0.00    +0.201 C 
ATOM      3  C   UNL     1       8.547  12.886  19.770  0.00  0.00    +0.179 C 
ATOM      4  C   UNL     1       7.169  12.210  19.587  0.00  0.00    +0.177 C 
ATOM      5  C   UNL     1       7.307  10.868  18.823  0.00  0.00    +0.178 C 
ATOM      6  O   UNL     1       7.971  11.078  17.587  0.00  0.00    -0.341 OA
ENDROOT
BRANCH   1   7
ATOM      7  O   UNL     1       9.963  11.543  16.559  0.00  0.00    -0.365 OA
ATOM      8  H   UNL     1       9.252  11.654  15.875  0.00  0.00    +0.213 HD
ENDBRANCH   1   7
BRANCH   2   9
ATOM      9  O   UNL     1      10.680  13.254  18.715  0.00  0.00    -0.384 OA
ATOM     10  H   UNL     1      10.648  14.159  19.121  0.00  0.00    +0.210 HD
ENDBRANCH   2   9
BRANCH   3  11
ATOM     11  O   UNL     1       9.272  12.315  20.834  0.00  0.00    -0.386 OA
ATOM     12  H   UNL     1       8.827  11.470  21.098  0.00  0.00    +0.210 HD
ENDBRANCH   3  11
BRANCH   4  13
ATOM     13  O   UNL     1       6.570  11.994  20.840  0.00  0.00    -0.386 OA
ATOM     14  H   UNL     1       6.932  12.688  21.452  0.00  0.00    +0.210 HD
ENDBRANCH   4  13
BRANCH   5  15
ATOM     15  C   UNL     1       5.933  10.255  18.520  0.00  0.00    +0.190 C 
BRANCH  15  16
ATOM     16  O   UNL     1       4.910  11.154  18.851  0.00  0.00    -0.392 OA
ATOM     17  H   UNL     1       4.383  11.289  18.021  0.00  0.00    +0.210 HD
ENDBRANCH  15  16
ENDBRANCH   5  15
TORSDOF 6
ENDMDL
MODEL 7
REMARK VINA RESULT:    -4.817      2.433      3.753
REMARK INTER + INTRA:          -5.850
REMARK INTER:                  -5.605
REMARK INTRA:                  -0.245
REMARK UNBOUND:                -0.047
REMARK  Name = ALL
REMARK  6 active torsions:
REMARK  status: ('A' for Active; 'I' for Inactive)
REMARK    1  A    between atoms: C_1  and  O_7
REMARK    2  A    between atoms: C_2  and  O_8
REMARK    3  A    between atoms: C_3  and  O_9
REMARK    4  A    between atoms: C_4  and  O_10
REMARK    5  A    between atoms: C_5  and  C_6
REMARK    6  A    between atoms: C_6  and  O_12
REMARK                            x       y       z     vdW  Elec       q    Type
REMARK                         _______ _______ _______ _____ _____    ______ ____
ROOT
ATOM      1  C   UNL     1       6.942  15.593  18.943  0.00  0.00    +0.279 C 
ATOM      2  C   UNL     1       6.244  14.312  18.445  0.00  0.00    +0.201 C 
ATOM      3  C   UNL     1       6.602  13.107  19.340  0.00  0.00    +0.179 C 
ATOM      4  C   UNL     1       8.122  13.046  19.614  0.00  0.00    +0.177 C 
ATOM      5  C   UNL     1       8.671  14.442  20.007  0.00  0.00    +0.178 C 
ATOM      6  O   UNL     1       8.343  15.393  19.006  0.00  0.00    -0.341 OA
ENDROOT
BRANCH   1   7
ATOM      7  O   UNL     1       6.678  16.632  18.040  0.00  0.00    -0.365 OA
ATOM      8  H   UNL     1       5.694  16.645  17.906  0.00  0.00    +0.213 HD
ENDBRANCH   1   7
BRANCH   2   9
ATOM      9  O   UNL     1       4.851  14.487  18.429  0.00  0.00    -0.384 OA
ATOM     10  H   UNL     1       4.652  15.170  17.737  0.00  0.00    +0.210 HD
ENDBRANCH   2   9
BRANCH   3  11
ATOM     11  O   UNL     1       5.855  13.104  20.534  0.00  0.00    -0.386 OA
ATOM     12  H   UNL     1       5.631  12.166  20.761  0.00  0.00    +0.210 HD
ENDBRANCH   3  11
BRANCH   4  13
ATOM     13  O   UNL     1       8.388  12.117  20.634  0.00  0.00    -0.386 OA
ATOM     14  H   UNL     1       7.993  11.253  20.343  0.00  0.00    +0.210 HD
ENDBRANCH   4  13
BRANCH   5  15
ATOM     15  C   UNL     1      10.199  14.420  20.151  0.00  0.00    +0.190 C 
BRANCH  15  16
ATOM     16  O   UNL     1      10.566  13.928  21.411  0.00  0.00    -0.392 OA
ATOM     17  H   UNL     1      11.261  13.240  21.246  0.00  0.00    +0.210 HD
ENDBRANCH  15  16
ENDBRANCH   5  15
TORSDOF 6
ENDMDL
MODEL 8
REMARK VINA RESULT:    -4.789      1.435      2.917
REMARK INTER + INTRA:          -5.816
REMARK INTER:                  -5.574
REMARK INTRA:                  -0.243
REMARK UNBOUND:                -0.047
REMARK  Name = ALL
REMARK  6 active torsions:
REMARK  status: ('A' for Active; 'I' for Inactive)
REMARK    1  A    between atoms: C_1  and  O_7
REMARK    2  A    between atoms: C_2  and  O_8
REMARK    3  A    between atoms: C_3  and  O_9
REMARK    4  A    between atoms: C_4  and  O_10
REMARK    5  A    between atoms: C_5  and  C_6
REMARK    6  A    between atoms: C_6  and  O_12
REMARK                            x       y       z     vdW  Elec       q    Type
REMARK                         _______ _______ _______ _____ _____    ______ ____
ROOT
ATOM      1  C   UNL     1       7.591  14.361  17.999  0.00  0.00    +0.279 C 
ATOM      2  C   UNL     1       6.112  14.013  18.260  0.00  0.00    +0.201 C 
ATOM      3  C   UNL     1       5.989  12.898  19.319  0.00  0.00    +0.179 C 
ATOM      4  C   UNL     1       6.968  11.738  19.026  0.00  0.00    +0.177 C 
ATOM      5  C   UNL     1       8.381  12.277  18.688  0.00  0.00    +0.178 C 
ATOM      6  O   UNL     1       8.306  13.201  17.614  0.00  0.00    -0.341 OA
ENDROOT
BRANCH   1   7
ATOM      7  O   UNL     1       7.658  15.296  16.956  0.00  0.00    -0.365 OA
ATOM      8  H   UNL     1       8.609  15.571  16.886  0.00  0.00    +0.213 HD
ENDBRANCH   1   7
BRANCH   2   9
ATOM      9  O   UNL     1       5.409  15.150  18.692  0.00  0.00    -0.384 OA
ATOM     10  H   UNL     1       4.729  14.839  19.344  0.00  0.00    +0.210 HD
ENDBRANCH   2   9
BRANCH   3  11
ATOM     11  O   UNL     1       6.149  13.398  20.626  0.00  0.00    -0.386 OA
ATOM     12  H   UNL     1       5.253  13.611  20.991  0.00  0.00    +0.210 HD
ENDBRANCH   3  11
BRANCH   4  13
ATOM     13  O   UNL     1       7.031  10.873  20.132  0.00  0.00    -0.386 OA
ATOM     14  H   UNL     1       6.135  10.891  20.560  0.00  0.00    +0.210 HD
ENDBRANCH   4  13
BRANCH   5  15
ATOM     15  C   UNL     1       9.325  11.142  18.267  0.00  0.00    +0.190 C 
BRANCH  15  16
ATOM     16  O   UNL     1       9.904  10.542  19.392  0.00  0.00    -0.392 OA
ATOM     17  H   UNL     1      10.504   9.830  19.047  0.00  0.00    +0.210 HD
ENDBRANCH  15  16
ENDBRANCH   5  15
TORSDOF 6
ENDMDL
MODEL 9
REMARK VINA RESULT:    -4.727      2.042      3.429
REMARK INTER + INTRA:          -5.741
REMARK INTER:                  -5.497
REMARK INTRA:                  -0.244
REMARK UNBOUND:                -0.047
REMARK  Name = ALL
REMARK  6 active torsions:
REMARK  status: ('A' for Active; 'I' for Inactive)
REMARK    1  A    between atoms: C_1  and  O_7
REMARK    2  A    between atoms: C_2  and  O_8
REMARK    3  A    between atoms: C_3  and  O_9
REMARK    4  A    between atoms: C_4  and  O_10
REMARK    5  A    between atoms: C_5  and  C_6
REMARK    6  A    between atoms: C_6  and  O_12
REMARK                            x       y       z     vdW  Elec       q    Type
REMARK                         _______ _______ _______ _____ _____    ______ ____
ROOT
ATOM      1  C   UNL     1       9.448  13.160  20.079  0.00  0.00    +0.279 C 
ATOM      2  C   UNL     1       8.056  13.595  19.578  0.00  0.00    +0.201 C 
ATOM      3  C   UNL     1       7.038  12.444  19.715  0.00  0.00    +0.179 C 
ATOM      4  C   UNL     1       7.620  11.115  19.180  0.00  0.00    +0.177 C 
ATOM      5  C   UNL     1       9.060  10.889  19.707  0.00  0.00    +0.178 C 
ATOM      6  O   UNL     1       9.877  12.003  19.383  0.00  0.00    -0.341 OA
ENDROOT
BRANCH   1   7
ATOM      7  O   UNL     1      10.360  14.195  19.833  0.00  0.00    -0.365 OA
ATOM      8  H   UNL     1       9.821  14.999  19.614  0.00  0.00    +0.213 HD
ENDBRANCH   1   7
BRANCH   2   9
ATOM      9  O   UNL     1       7.602  14.711  20.300  0.00  0.00    -0.384 OA
ATOM     10  H   UNL     1       7.369  14.392  21.210  0.00  0.00    +0.210 HD
ENDBRANCH   2   9
BRANCH   3  11
ATOM     11  O   UNL     1       6.571  12.314  21.038  0.00  0.00    -0.386 OA
ATOM     12  H   UNL     1       7.016  13.001  21.595  0.00  0.00    +0.210 HD
ENDBRANCH   3  11
BRANCH   4  13
ATOM     13  O   UNL     1       6.793  10.044  19.556  0.00  0.00    -0.386 OA
ATOM     14  H   UNL     1       5.896  10.226  19.169  0.00  0.00    +0.210 HD
ENDBRANCH   4  13
BRANCH   5  15
ATOM     15  C   UNL     1       9.695   9.642  19.076  0.00  0.00    +0.190 C 
BRANCH  15  16
ATOM     16  O   UNL     1       9.237   8.482  19.714  0.00  0.00    -0.392 OA
ATOM     17  H   UNL     1       8.250   8.486  19.616  0.00  0.00    +0.210 HD
ENDBRANCH  15  16
ENDBRANCH   5  15
TORSDOF 6
ENDMDL
MODEL 10
REMARK VINA RESULT:    -4.674      1.879      4.141
REMARK INTER + INTRA:          -5.678
REMARK INTER:                  -5.431
REMARK INTRA:                  -0.247
REMARK UNBOUND:                -0.047
REMARK  Name = ALL
REMARK  6 active torsions:
REMARK  status: ('A' for Active; 'I' for Inactive)
REMARK    1  A    between atoms: C_1  and  O_7
REMARK    2  A    between atoms: C_2  and  O_8
REMARK    3  A    between atoms: C_3  and  O_9
REMARK    4  A    between atoms: C_4  and  O_10
REMARK    5  A    between atoms: C_5  and  C_6
REMARK    6  A    between atoms: C_6  and  O_12
REMARK                            x       y       z     vdW  Elec       q    Type
REMARK                         _______ _______ _______ _____ _____    ______ ____
ROOT
ATOM      1  C   UNL     1       7.747  11.275  18.097  0.00  0.00    +0.279 C 
ATOM      2  C   UNL     1       9.074  12.021  18.342  0.00  0.00    +0.201 C 
ATOM      3  C   UNL     1       8.937  13.013  19.516  0.00  0.00    +0.179 C 
ATOM      4  C   UNL     1       7.644  13.851  19.392  0.00  0.00    +0.177 C 
ATOM      5  C   UNL     1       6.431  12.951  19.047  0.00  0.00    +0.178 C 
ATOM      6  O   UNL     1       6.700  12.201  17.873  0.00  0.00    -0.341 OA
ENDROOT
BRANCH   1   7
ATOM      7  O   UNL     1       7.886  10.469  16.958  0.00  0.00    -0.365 OA
ATOM      8  H   UNL     1       7.873  11.082  16.177  0.00  0.00    +0.213 HD
ENDBRANCH   1   7
BRANCH   2   9
ATOM      9  O   UNL     1      10.106  11.109  18.617  0.00  0.00    -0.384 OA
ATOM     10  H   UNL     1       9.965  10.781  19.543  0.00  0.00    +0.210 HD
ENDBRANCH   2   9
BRANCH   3  11
ATOM     11  O   UNL     1       9.020  12.363  20.762  0.00  0.00    -0.386 OA
ATOM     12  H   UNL     1       8.517  11.512  20.706  0.00  0.00    +0.210 HD
ENDBRANCH   3  11
BRANCH   4  13
ATOM     13  O   UNL     1       7.406  14.545  20.590  0.00  0.00    -0.386 OA
ATOM     14  H   UNL     1       6.456  14.383  20.831  0.00  0.00    +0.210 HD
ENDBRANCH   4  13
BRANCH   5  15
ATOM     15  C   UNL     1       5.169  13.788  18.791  0.00  0.00    +0.190 C 
BRANCH  15  16
ATOM     16  O   UNL     1       5.508  15.127  18.558  0.00  0.00    -0.392 OA
ATOM     17  H   UNL     1       4.687  15.562  18.210  0.00  0.00    +0.210 HD
ENDBRANCH  15  16
ENDBRANCH   5  15
TORSDOF 6
ENDMDL
MODEL 11
REMARK VINA RESULT:    -4.657      2.690      4.358
REMARK INTER + INTRA:          -5.657
REMARK INTER:                  -5.413
REMARK INTRA:                  -0.244
REMARK UNBOUND:                -0.047
REMARK  Name = ALL
REMARK  6 active torsions:
REMARK  status: ('A' for Active; 'I' for Inactive)
REMARK    1  A    between atoms: C_1  and  O_7
REMARK    2  A    between atoms: C_2  and  O_8
REMARK    3  A    between atoms: C_3  and  O_9
REMARK    4  A    between atoms: C_4  and  O_10
REMARK    5  A    between atoms: C_5  and  C_6
REMARK    6  A    between atoms: C_6  and  O_12
REMARK                            x       y       z     vdW  Elec       q    Type
REMARK                         _______ _______ _______ _____ _____    ______ ____
ROOT
ATOM      1  C   UNL     1       7.208  13.664  18.364  0.00  0.00    +0.279 C 
ATOM      2  C   UNL     1       8.301  12.613  18.084  0.00  0.00    +0.201 C 
ATOM      3  C   UNL     1       9.190  12.400  19.327  0.00  0.00    +0.179 C 
ATOM      4  C   UNL     1       9.621  13.751  19.944  0.00  0.00    +0.177 C 
ATOM      5  C   UNL     1       8.416  14.718  20.059  0.00  0.00    +0.178 C 
ATOM      6  O   UNL     1       7.797  14.878  18.793  0.00  0.00    -0.341 OA
ENDROOT
BRANCH   1   7
ATOM      7  O   UNL     1       6.498  13.904  17.179  0.00  0.00    -0.365 OA
ATOM      8  H   UNL     1       7.118  14.386  16.572  0.00  0.00    +0.213 HD
ENDBRANCH   1   7
BRANCH   2   9
ATOM      9  O   UNL     1       7.720  11.390  17.708  0.00  0.00    -0.384 OA
ATOM     10  H   UNL     1       7.032  11.175  18.389  0.00  0.00    +0.210 HD
ENDBRANCH   2   9
BRANCH   3  11
ATOM     11  O   UNL     1       8.568  11.567  20.278  0.00  0.00    -0.386 OA
ATOM     12  H   UNL     1       9.247  11.292  20.944  0.00  0.00    +0.210 HD
ENDBRANCH   3  11
BRANCH   4  13
ATOM     13  O   UNL     1      10.196  13.538  21.208  0.00  0.00    -0.386 OA
ATOM     14  H   UNL     1      11.179  13.623  21.093  0.00  0.00    +0.210 HD
ENDBRANCH   4  13
BRANCH   5  15
ATOM     15  C   UNL     1       8.858  16.105  20.546  0.00  0.00    +0.190 C 
BRANCH  15  16
ATOM     16  O   UNL     1       9.057  16.099  21.933  0.00  0.00    -0.392 OA
ATOM     17  H   UNL     1       9.889  15.581  22.088  0.00  0.00    +0.210 HD
ENDBRANCH  15  16
ENDBRANCH   5  15
TORSDOF 6
ENDMDL
MODEL 12
REMARK VINA RESULT:    -4.635      2.000      3.158
REMARK INTER + INTRA:          -5.631
REMARK INTER:                  -5.583
REMARK INTRA:                  -0.048
REMARK UNBOUND:                -0.047
REMARK  Name = ALL
REMARK  6 active torsions:
REMARK  status: ('A' for Active; 'I' for Inactive)
REMARK    1  A    between atoms: C_1  and  O_7
REMARK    2  A    between atoms: C_2  and  O_8
REMARK    3  A    between atoms: C_3  and  O_9
REMARK    4  A    between atoms: C_4  and  O_10
REMARK    5  A    between atoms: C_5  and  C_6
REMARK    6  A    between atoms: C_6  and  O_12
REMARK                            x       y       z     vdW  Elec       q    Type
REMARK                         _______ _______ _______ _____ _____    ______ ____
ROOT
ATOM      1  C   UNL     1       7.238  11.633  19.358  0.00  0.00    +0.279 C 
ATOM      2  C   UNL     1       5.906  12.385  19.550  0.00  0.00    +0.201 C 
ATOM      3  C   UNL     1       6.015  13.837  19.039  0.00  0.00    +0.179 C 
ATOM      4  C   UNL     1       7.310  14.512  19.545  0.00  0.00    +0.177 C 
ATOM      5  C   UNL     1       8.531  13.575  19.363  0.00  0.00    +0.178 C 
ATOM      6  O   UNL     1       8.290  12.331  20.000  0.00  0.00    -0.341 OA
ENDROOT
BRANCH   1   7
ATOM      7  O   UNL     1       7.126  10.361  19.935  0.00  0.00    -0.365 OA
ATOM      8  H   UNL     1       6.357  10.403  20.561  0.00  0.00    +0.213 HD
ENDBRANCH   1   7
BRANCH   2   9
ATOM      9  O   UNL     1       4.868  11.725  18.871  0.00  0.00    -0.384 OA
ATOM     10  H   UNL     1       4.020  11.988  19.314  0.00  0.00    +0.210 HD
ENDBRANCH   2   9
BRANCH   3  11
ATOM     11  O   UNL     1       5.904  13.906  17.636  0.00  0.00    -0.386 OA
ATOM     12  H   UNL     1       5.488  14.773  17.398  0.00  0.00    +0.210 HD
ENDBRANCH   3  11
BRANCH   4  13
ATOM     13  O   UNL     1       7.520  15.720  18.859  0.00  0.00    -0.386 OA
ATOM     14  H   UNL     1       7.184  16.446  19.449  0.00  0.00    +0.210 HD
ENDBRANCH   4  13
BRANCH   5  15
ATOM     15  C   UNL     1       9.798  14.183  19.983  0.00  0.00    +0.190 C 
BRANCH  15  16
ATOM     16  O   UNL     1      10.162  13.481  21.140  0.00  0.00    -0.392 OA
ATOM     17  H   UNL     1       9.421  12.847  21.323  0.00  0.00    +0.210 HD
ENDBRANCH  15  16
ENDBRANCH   5  15
TORSDOF 6
ENDMDL
MODEL 13
REMARK VINA RESULT:    -4.630      1.888      3.354
REMARK INTER + INTRA:          -5.624
REMARK INTER:                  -5.425
REMARK INTRA:                  -0.199
REMARK UNBOUND:                -0.047
REMARK  Name = ALL
REMARK  6 active torsions:
REMARK  status: ('A' for Active; 'I' for Inactive)
REMARK    1  A    between atoms: C_1  and  O_7
REMARK    2  A    between atoms: C_2  and  O_8
REMARK    3  A    between atoms: C_3  and  O_9
REMARK    4  A    between atoms: C_4  and  O_10
REMARK    5  A    between atoms: C_5  and  C_6
REMARK    6  A    between atoms: C_6  and  O_12
REMARK                            x       y       z     vdW  Elec       q    Type
REMARK                         _______ _______ _______ _____ _____    ______ ____
ROOT
ATOM      1  C   UNL     1       5.927  12.242  19.350  0.00  0.00    +0.279 C 
ATOM      2  C   UNL     1       6.087  10.987  18.469  0.00  0.00    +0.201 C 
ATOM      3  C   UNL     1       7.350  10.194  18.865  0.00  0.00    +0.179 C 
ATOM      4  C   UNL     1       8.570  11.129  19.027  0.00  0.00    +0.177 C 
ATOM      5  C   UNL     1       8.200  12.385  19.857  0.00  0.00    +0.178 C 
ATOM      6  O   UNL     1       7.090  13.046  19.271  0.00  0.00    -0.341 OA
ENDROOT
BRANCH   1   7
ATOM      7  O   UNL     1       4.835  12.986  18.884  0.00  0.00    -0.365 OA
ATOM      8  H   UNL     1       4.189  12.332  18.509  0.00  0.00    +0.213 HD
ENDBRANCH   1   7
BRANCH   2   9
ATOM      9  O   UNL     1       4.958  10.160  18.584  0.00  0.00    -0.384 OA
ATOM     10  H   UNL     1       4.391  10.331  17.787  0.00  0.00    +0.210 HD
ENDBRANCH   2   9
BRANCH   3  11
ATOM     11  O   UNL     1       7.135   9.412  20.017  0.00  0.00    -0.386 OA
ATOM     12  H   UNL     1       7.458   8.493  19.837  0.00  0.00    +0.210 HD
ENDBRANCH   3  11
BRANCH   4  13
ATOM     13  O   UNL     1       9.627  10.436  19.641  0.00  0.00    -0.386 OA
ATOM     14  H   UNL     1       9.638  10.718  20.593  0.00  0.00    +0.210 HD
ENDBRANCH   4  13
BRANCH   5  15
ATOM     15  C   UNL     1       9.366  13.382  19.910  0.00  0.00    +0.190 C 
BRANCH  15  16
ATOM     16  O   UNL     1      10.102  13.214  21.090  0.00  0.00    -0.392 OA
ATOM     17  H   UNL     1       9.691  13.821  21.759  0.00  0.00    +0.210 HD
ENDBRANCH  15  16
ENDBRANCH   5  15
TORSDOF 6
ENDMDL
MODEL 14
REMARK VINA RESULT:    -4.606      6.899      8.270
REMARK INTER + INTRA:          -5.596
REMARK INTER:                  -5.559
REMARK INTRA:                  -0.037
REMARK UNBOUND:                -0.047
REMARK  Name = ALL
REMARK  6 active torsions:
REMARK  status: ('A' for Active; 'I' for Inactive)
REMARK    1  A    between atoms: C_1  and  O_7
REMARK    2  A    between atoms: C_2  and  O_8
REMARK    3  A    between atoms: C_3  and  O_9
REMARK    4  A    between atoms: C_4  and  O_10
REMARK    5  A    between atoms: C_5  and  C_6
REMARK    6  A    between atoms: C_6  and  O_12
REMARK                            x       y       z     vdW  Elec       q    Type
REMARK                         _______ _______ _______ _____ _____    ______ ____
ROOT
ATOM      1  C   UNL     1       6.275  19.892  21.191  0.00  0.00    +0.279 C 
ATOM      2  C   UNL     1       6.489  21.113  22.108  0.00  0.00    +0.201 C 
ATOM      3  C   UNL     1       7.906  21.101  22.717  0.00  0.00    +0.179 C 
ATOM      4  C   UNL     1       8.265  19.704  23.272  0.00  0.00    +0.177 C 
ATOM      5  C   UNL     1       7.891  18.592  22.259  0.00  0.00    +0.178 C 
ATOM      6  O   UNL     1       6.521  18.695  21.906  0.00  0.00    -0.341 OA
ENDROOT
BRANCH   1   7
ATOM      7  O   UNL     1       4.944  19.886  20.750  0.00  0.00    -0.365 OA
ATOM      8  H   UNL     1       4.562  20.768  20.997  0.00  0.00    +0.213 HD
ENDBRANCH   1   7
BRANCH   2   9
ATOM      9  O   UNL     1       6.297  22.305  21.390  0.00  0.00    -0.384 OA
ATOM     10  H   UNL     1       5.841  22.062  20.542  0.00  0.00    +0.210 HD
ENDBRANCH   2   9
BRANCH   3  11
ATOM     11  O   UNL     1       8.872  21.562  21.801  0.00  0.00    -0.386 OA
ATOM     12  H   UNL     1       9.712  21.058  21.952  0.00  0.00    +0.210 HD
ENDBRANCH   3  11
BRANCH   4  13
ATOM     13  O   UNL     1       9.636  19.645  23.573  0.00  0.00    -0.386 OA
ATOM     14  H   UNL     1       9.723  19.108  24.404  0.00  0.00    +0.210 HD
ENDBRANCH   4  13
BRANCH   5  15
ATOM     15  C   UNL     1       8.119  17.195  22.854  0.00  0.00    +0.190 C 
BRANCH  15  16
ATOM     16  O   UNL     1       7.872  16.206  21.893  0.00  0.00    -0.392 OA
ATOM     17  H   UNL     1       7.289  16.627  21.209  0.00  0.00    +0.210 HD
ENDBRANCH  15  16
ENDBRANCH   5  15
TORSDOF 6
ENDMDL
MODEL 15
REMARK VINA RESULT:    -4.596      6.931      8.395
REMARK INTER + INTRA:          -5.584
REMARK INTER:                  -5.330
REMARK INTRA:                  -0.254
REMARK UNBOUND:                -0.047
REMARK  Name = ALL
REMARK  6 active torsions:
REMARK  status: ('A' for Active; 'I' for Inactive)
REMARK    1  A    between atoms: C_1  and  O_7
REMARK    2  A    between atoms: C_2  and  O_8
REMARK    3  A    between atoms: C_3  and  O_9
REMARK    4  A    between atoms: C_4  and  O_10
REMARK    5  A    between atoms: C_5  and  C_6
REMARK    6  A    between atoms: C_6  and  O_12
REMARK                            x       y       z     vdW  Elec       q    Type
REMARK                         _______ _______ _______ _____ _____    ______ ____
ROOT
ATOM      1  C   UNL     1       9.999  19.237  15.106  0.00  0.00    +0.279 C 
ATOM      2  C   UNL     1       8.713  18.873  14.336  0.00  0.00    +0.201 C 
ATOM      3  C   UNL     1       8.655  17.359  14.048  0.00  0.00    +0.179 C 
ATOM      4  C   UNL     1      10.003  16.843  13.495  0.00  0.00    +0.177 C 
ATOM      5  C   UNL     1      11.190  17.386  14.331  0.00  0.00    +0.178 C 
ATOM      6  O   UNL     1      11.139  18.803  14.385  0.00  0.00    -0.341 OA
ENDROOT
BRANCH   1   7
ATOM      7  O   UNL     1      10.062  20.630  15.247  0.00  0.00    -0.365 OA
ATOM      8  H   UNL     1      10.292  20.806  16.197  0.00  0.00    +0.213 HD
ENDBRANCH   1   7
BRANCH   2   9
ATOM      9  O   UNL     1       7.578  19.255  15.071  0.00  0.00    -0.384 OA
ATOM     10  H   UNL     1       6.785  18.992  14.536  0.00  0.00    +0.210 HD
ENDBRANCH   2   9
BRANCH   3  11
ATOM     11  O   UNL     1       8.240  16.628  15.178  0.00  0.00    -0.386 OA
ATOM     12  H   UNL     1       7.255  16.530  15.143  0.00  0.00    +0.210 HD
ENDBRANCH   3  11
BRANCH   4  13
ATOM     13  O   UNL     1      10.014  15.438  13.494  0.00  0.00    -0.386 OA
ATOM     14  H   UNL     1      10.481  15.155  14.325  0.00  0.00    +0.210 HD
ENDBRANCH   4  13
BRANCH   5  15
ATOM     15  C   UNL     1      12.537  16.989  13.711  0.00  0.00    +0.190 C 
BRANCH  15  16
ATOM     16  O   UNL     1      12.393  16.744  12.339  0.00  0.00    -0.392 OA
ATOM     17  H   UNL     1      11.417  16.731  12.163  0.00  0.00    +0.210 HD
ENDBRANCH  15  16
ENDBRANCH   5  15
TORSDOF 6
ENDMDL
MODEL 16
REMARK VINA RESULT:    -4.576      9.856     11.946
REMARK INTER + INTRA:          -5.559
REMARK INTER:                  -5.305
REMARK INTRA:                  -0.254
REMARK UNBOUND:                -0.047
REMARK  Name = ALL
REMARK  6 active torsions:
REMARK  status: ('A' for Active; 'I' for Inactive)
REMARK    1  A    between atoms: C_1  and  O_7
REMARK    2  A    between atoms: C_2  and  O_8
REMARK    3  A    between atoms: C_3  and  O_9
REMARK    4  A    between atoms: C_4  and  O_10
REMARK    5  A    between atoms: C_5  and  C_6
REMARK    6  A    between atoms: C_6  and  O_12
REMARK                            x       y       z     vdW  Elec       q    Type
REMARK                         _______ _______ _______ _____ _____    ______ ____
ROOT
ATOM      1  C   UNL     1       9.265  21.993  23.344  0.00  0.00    +0.279 C 
ATOM      2  C   UNL     1       8.139  20.984  23.038  0.00  0.00    +0.201 C 
ATOM      3  C   UNL     1       6.950  21.682  22.346  0.00  0.00    +0.179 C 
ATOM      4  C   UNL     1       6.572  22.994  23.071  0.00  0.00    +0.177 C 
ATOM      5  C   UNL     1       7.835  23.836  23.387  0.00  0.00    +0.178 C 
ATOM      6  O   UNL     1       8.764  23.061  24.128  0.00  0.00    -0.341 OA
ENDROOT
BRANCH   1   7
ATOM      7  O   UNL     1      10.272  21.339  24.068  0.00  0.00    -0.365 OA
ATOM      8  H   UNL     1      10.106  21.541  25.026  0.00  0.00    +0.213 HD
ENDBRANCH   1   7
BRANCH   2   9
ATOM      9  O   UNL     1       8.618  19.949  22.218  0.00  0.00    -0.384 OA
ATOM     10  H   UNL     1       8.598  19.118  22.760  0.00  0.00    +0.210 HD
ENDBRANCH   2   9
BRANCH   3  11
ATOM     11  O   UNL     1       7.194  21.894  20.975  0.00  0.00    -0.386 OA
ATOM     12  H   UNL     1       7.589  21.069  20.596  0.00  0.00    +0.210 HD
ENDBRANCH   3  11
BRANCH   4  13
ATOM     13  O   UNL     1       5.679  23.738  22.281  0.00  0.00    -0.386 OA
ATOM     14  H   UNL     1       5.298  24.443  22.868  0.00  0.00    +0.210 HD
ENDBRANCH   4  13
BRANCH   5  15
ATOM     15  C   UNL     1       7.484  25.075  24.223  0.00  0.00    +0.190 C 
BRANCH  15  16
ATOM     16  O   UNL     1       6.285  24.874  24.920  0.00  0.00    -0.392 OA
ATOM     17  H   UNL     1       5.637  24.521  24.256  0.00  0.00    +0.210 HD
ENDBRANCH  15  16
ENDBRANCH   5  15
TORSDOF 6
ENDMDL
MODEL 17
REMARK VINA RESULT:    -4.568      3.636      4.746
REMARK INTER + INTRA:          -5.550
REMARK INTER:                  -5.345
REMARK INTRA:                  -0.206
REMARK UNBOUND:                -0.047
REMARK  Name = ALL
REMARK  6 active torsions:
REMARK  status: ('A' for Active; 'I' for Inactive)
REMARK    1  A    between atoms: C_1  and  O_7
REMARK    2  A    between atoms: C_2  and  O_8
REMARK    3  A    between atoms: C_3  and  O_9
REMARK    4  A    between atoms: C_4  and  O_10
REMARK    5  A    between atoms: C_5  and  C_6
REMARK    6  A    between atoms: C_6  and  O_12
REMARK                            x       y       z     vdW  Elec       q    Type
REMARK                         _______ _______ _______ _____ _____    ______ ____
ROOT
ATOM      1  C   UNL     1       5.831   8.787  16.033  0.00  0.00    +0.279 C 
ATOM      2  C   UNL     1       4.646   8.597  17.001  0.00  0.00    +0.201 C 
ATOM      3  C   UNL     1       5.045   8.985  18.440  0.00  0.00    +0.179 C 
ATOM      4  C   UNL     1       6.407   8.367  18.829  0.00  0.00    +0.177 C 
ATOM      5  C   UNL     1       7.449   8.566  17.700  0.00  0.00    +0.178 C 
ATOM      6  O   UNL     1       6.950   8.043  16.479  0.00  0.00    -0.341 OA
ENDROOT
BRANCH   1   7
ATOM      7  O   UNL     1       5.458   8.320  14.765  0.00  0.00    -0.365 OA
ATOM      8  H   UNL     1       5.950   8.875  14.105  0.00  0.00    +0.213 HD
ENDBRANCH   1   7
BRANCH   2   9
ATOM      9  O   UNL     1       3.550   9.374  16.592  0.00  0.00    -0.384 OA
ATOM     10  H   UNL     1       3.896  10.283  16.397  0.00  0.00    +0.210 HD
ENDBRANCH   2   9
BRANCH   3  11
ATOM     11  O   UNL     1       5.032  10.381  18.628  0.00  0.00    -0.386 OA
ATOM     12  H   UNL     1       5.852  10.759  18.220  0.00  0.00    +0.210 HD
ENDBRANCH   3  11
BRANCH   4  13
ATOM     13  O   UNL     1       6.871   8.943  20.024  0.00  0.00    -0.386 OA
ATOM     14  H   UNL     1       6.156   9.554  20.343  0.00  0.00    +0.210 HD
ENDBRANCH   4  13
BRANCH   5  15
ATOM     15  C   UNL     1       8.764   7.841  18.019  0.00  0.00    +0.190 C 
BRANCH  15  16
ATOM     16  O   UNL     1       9.375   8.407  19.146  0.00  0.00    -0.392 OA
ATOM     17  H   UNL     1       9.591   9.344  18.901  0.00  0.00    +0.210 HD
ENDBRANCH  15  16
ENDBRANCH   5  15
TORSDOF 6
ENDMDL
MODEL 18
REMARK VINA RESULT:    -4.552      4.345      5.894
REMARK INTER + INTRA:          -5.531
REMARK INTER:                  -5.281
REMARK INTRA:                  -0.250
REMARK UNBOUND:                -0.047
REMARK  Name = ALL
REMARK  6 active torsions:
REMARK  status: ('A' for Active; 'I' for Inactive)
REMARK    1  A    between atoms: C_1  and  O_7
REMARK    2  A    between atoms: C_2  and  O_8
REMARK    3  A    between atoms: C_3  and  O_9
REMARK    4  A    between atoms: C_4  and  O_10
REMARK    5  A    between atoms: C_5  and  C_6
REMARK    6  A    between atoms: C_6  and  O_12
REMARK                            x       y       z     vdW  Elec       q    Type
REMARK                         _______ _______ _______ _____ _____    ______ ____
ROOT
ATOM      1  C   UNL     1       8.108  18.652  18.947  0.00  0.00    +0.279 C 
ATOM      2  C   UNL     1       8.009  17.543  17.880  0.00  0.00    +0.201 C 
ATOM      3  C   UNL     1       7.473  16.234  18.496  0.00  0.00    +0.179 C 
ATOM      4  C   UNL     1       8.195  15.904  19.823  0.00  0.00    +0.177 C 
ATOM      5  C   UNL     1       8.290  17.158  20.729  0.00  0.00    +0.178 C 
ATOM      6  O   UNL     1       8.915  18.220  20.027  0.00  0.00    -0.341 OA
ENDROOT
BRANCH   1   7
ATOM      7  O   UNL     1       8.700  19.783  18.369  0.00  0.00    -0.365 OA
ATOM      8  H   UNL     1       9.309  19.450  17.659  0.00  0.00    +0.213 HD
ENDBRANCH   1   7
BRANCH   2   9
ATOM      9  O   UNL     1       7.168  17.946  16.830  0.00  0.00    -0.384 OA
ATOM     10  H   UNL     1       7.491  18.833  16.524  0.00  0.00    +0.210 HD
ENDBRANCH   2   9
BRANCH   3  11
ATOM     11  O   UNL     1       6.074  16.267  18.657  0.00  0.00    -0.386 OA
ATOM     12  H   UNL     1       5.683  16.765  17.896  0.00  0.00    +0.210 HD
ENDBRANCH   3  11
BRANCH   4  13
ATOM     13  O   UNL     1       7.517  14.872  20.493  0.00  0.00    -0.386 OA
ATOM     14  H   UNL     1       7.046  14.341  19.798  0.00  0.00    +0.210 HD
ENDBRANCH   4  13
BRANCH   5  15
ATOM     15  C   UNL     1       9.120  16.874  21.989  0.00  0.00    +0.190 C 
BRANCH  15  16
ATOM     16  O   UNL     1       9.910  15.731  21.809  0.00  0.00    -0.392 OA
ATOM     17  H   UNL     1      10.689  15.837  22.415  0.00  0.00    +0.210 HD
ENDBRANCH  15  16
ENDBRANCH   5  15
TORSDOF 6
ENDMDL
MODEL 19
REMARK VINA RESULT:    -4.536      6.820      9.088
REMARK INTER + INTRA:          -5.512
REMARK INTER:                  -5.271
REMARK INTRA:                  -0.241
REMARK UNBOUND:                -0.047
REMARK  Name = ALL
REMARK  6 active torsions:
REMARK  status: ('A' for Active; 'I' for Inactive)
REMARK    1  A    between atoms: C_1  and  O_7
REMARK    2  A    between atoms: C_2  and  O_8
REMARK    3  A    between atoms: C_3  and  O_9
REMARK    4  A    between atoms: C_4  and  O_10
REMARK    5  A    between atoms: C_5  and  C_6
REMARK    6  A    between atoms: C_6  and  O_12
REMARK                            x       y       z     vdW  Elec       q    Type
REMARK                         _______ _______ _______ _____ _____    ______ ____
ROOT
ATOM      1  C   UNL     1       9.696  17.108  13.626  0.00  0.00    +0.279 C 
ATOM      2  C   UNL     1       9.167  17.109  15.074  0.00  0.00    +0.201 C 
ATOM      3  C   UNL     1       8.950  18.550  15.579  0.00  0.00    +0.179 C 
ATOM      4  C   UNL     1      10.164  19.448  15.248  0.00  0.00    +0.177 C 
ATOM      5  C   UNL     1      10.621  19.244  13.781  0.00  0.00    +0.178 C 
ATOM      6  O   UNL     1      10.886  17.871  13.540  0.00  0.00    -0.341 OA
ENDROOT
BRANCH   1   7
ATOM      7  O   UNL     1       9.983  15.787  13.251  0.00  0.00    -0.365 OA
ATOM      8  H   UNL     1      10.416  15.360  14.034  0.00  0.00    +0.213 HD
ENDBRANCH   1   7
BRANCH   2   9
ATOM      9  O   UNL     1       7.960  16.396  15.156  0.00  0.00    -0.384 OA
ATOM     10  H   UNL     1       7.689  16.392  16.111  0.00  0.00    +0.210 HD
ENDBRANCH   2   9
BRANCH   3  11
ATOM     11  O   UNL     1       7.747  19.098  15.091  0.00  0.00    -0.386 OA
ATOM     12  H   UNL     1       7.236  19.463  15.857  0.00  0.00    +0.210 HD
ENDBRANCH   3  11
BRANCH   4  13
ATOM     13  O   UNL     1       9.838  20.796  15.471  0.00  0.00    -0.386 OA
ATOM     14  H   UNL     1       9.432  20.846  16.377  0.00  0.00    +0.210 HD
ENDBRANCH   4  13
BRANCH   5  15
ATOM     15  C   UNL     1      11.906  20.030  13.483  0.00  0.00    +0.190 C 
BRANCH  15  16
ATOM     16  O   UNL     1      11.621  21.392  13.317  0.00  0.00    -0.392 OA
ATOM     17  H   UNL     1      10.920  21.443  12.616  0.00  0.00    +0.210 HD
ENDBRANCH  15  16
ENDBRANCH   5  15
TORSDOF 6
ENDMDL
MODEL 20
REMARK VINA RESULT:    -4.506      2.128      4.330
REMARK INTER + INTRA:          -5.475
REMARK INTER:                  -5.251
REMARK INTRA:                  -0.224
REMARK UNBOUND:                -0.047
REMARK  Name = ALL
REMARK  6 active torsions:
REMARK  status: ('A' for Active; 'I' for Inactive)
REMARK    1  A    between atoms: C_1  and  O_7
REMARK    2  A    between atoms: C_2  and  O_8
REMARK    3  A    between atoms: C_3  and  O_9
REMARK    4  A    between atoms: C_4  and  O_10
REMARK    5  A    between atoms: C_5  and  C_6
REMARK    6  A    between atoms: C_6  and  O_12
REMARK                            x       y       z     vdW  Elec       q    Type
REMARK                         _______ _______ _______ _____ _____    ______ ____
ROOT
ATOM      1  C   UNL     1       9.115  11.375  17.857  0.00  0.00    +0.279 C 
ATOM      2  C   UNL     1       8.645   9.908  17.796  0.00  0.00    +0.201 C 
ATOM      3  C   UNL     1       7.105   9.825  17.761  0.00  0.00    +0.179 C 
ATOM      4  C   UNL     1       6.471  10.748  18.826  0.00  0.00    +0.177 C 
ATOM      5  C   UNL     1       7.132  12.150  18.810  0.00  0.00    +0.178 C 
ATOM      6  O   UNL     1       8.536  12.028  18.972  0.00  0.00    -0.341 OA
ENDROOT
BRANCH   1   7
ATOM      7  O   UNL     1      10.510  11.397  17.999  0.00  0.00    -0.365 OA
ATOM      8  H   UNL     1      10.811  12.284  17.672  0.00  0.00    +0.213 HD
ENDBRANCH   1   7
BRANCH   2   9
ATOM      9  O   UNL     1       9.176   9.269  16.663  0.00  0.00    -0.384 OA
ATOM     10  H   UNL     1       8.407   8.925  16.138  0.00  0.00    +0.210 HD
ENDBRANCH   2   9
BRANCH   3  11
ATOM     11  O   UNL     1       6.597  10.088  16.473  0.00  0.00    -0.386 OA
ATOM     12  H   UNL     1       6.187  10.989  16.477  0.00  0.00    +0.210 HD
ENDBRANCH   3  11
BRANCH   4  13
ATOM     13  O   UNL     1       5.089  10.861  18.600  0.00  0.00    -0.386 OA
ATOM     14  H   UNL     1       4.655  10.893  19.493  0.00  0.00    +0.210 HD
ENDBRANCH   4  13
BRANCH   5  15
ATOM     15  C   UNL     1       6.602  13.030  19.951  0.00  0.00    +0.190 C 
BRANCH  15  16
ATOM     16  O   UNL     1       6.356  12.257  21.093  0.00  0.00    -0.392 OA
ATOM     17  H   UNL     1       6.250  12.899  21.842  0.00  0.00    +0.210 HD
ENDBRANCH  15  16
ENDBRANCH   5  15
TORSDOF 6
ENDMDL
