MODEL 20
REMARK VINA RESULT:    -5.935      2.270      6.733
REMARK INTER + INTRA:          -9.826
REMARK INTER:                  -8.952
REMARK INTRA:                  -0.875
REMARK UNBOUND:                -1.116
REMARK  Name = BEM
REMARK  12 active torsions:
REMARK  status: ('A' for Active; 'I' for Inactive)
REMARK    1  A    between atoms: C_1  and  O_20
REMARK    2  A    between atoms: C_2  and  O_3
REMARK    3  A    between atoms: C_4  and  O_5
REMARK    4  A    between atoms: C_6  and  O_7
REMARK    5  A    between atoms: C_8  and  C_10
REMARK    6  A    between atoms: C_10  and  O_11
REMARK    7  A    between atoms: C_13  and  O_14
REMARK    8  A    between atoms: C_15  and  O_16
REMARK    9  A    between atoms: C_17  and  O_18
REMARK   10  A    between atoms: C_19  and  O_20
REMARK   11  A    between atoms: C_21  and  C_23
REMARK   12  A    between atoms: C_23  and  O_25
REMARK                            x       y       z     vdW  Elec       q    Type
REMARK                         _______ _______ _______ _____ _____    ______ ____
ROOT
ATOM      1  O   UNL     1     -35.366  13.077 -16.139  0.00  0.00    -0.340 OA
ENDROOT
BRANCH   1   2
ATOM      2  C   UNL     1     -36.375  13.271 -15.157  0.00  0.00    +0.283 C 
ATOM      3  C   UNL     1     -37.282  12.024 -15.038  0.00  0.00    +0.201 C 
ATOM      4  C   UNL     1     -38.106  11.841 -16.324  0.00  0.00    +0.179 C 
ATOM      5  C   UNL     1     -38.826  13.150 -16.687  0.00  0.00    +0.185 C 
ATOM      6  C   UNL     1     -37.806  14.308 -16.709  0.00  0.00    +0.260 C 
ATOM      7  O   UNL     1     -37.141  14.427 -15.462  0.00  0.00    -0.332 OA
BRANCH   3   8
ATOM      8  O   UNL     1     -38.148  12.167 -13.940  0.00  0.00    -0.384 OA
ATOM      9  H   UNL     1     -39.056  12.324 -14.309  0.00  0.00    +0.210 HD
ENDBRANCH   3   8
BRANCH   4  10
ATOM     10  O   UNL     1     -39.051  10.816 -16.154  0.00  0.00    -0.386 OA
ATOM     11  H   UNL     1     -39.583  10.775 -16.992  0.00  0.00    +0.210 HD
ENDBRANCH   4  10
BRANCH   5  12
ATOM     12  O   UNL     1     -39.425  13.028 -17.953  0.00  0.00    -0.386 OA
ATOM     13  H   UNL     1     -38.706  13.157 -18.626  0.00  0.00    +0.210 HD
ENDBRANCH   5  12
BRANCH   6  14
ATOM     14  C   UNL     1     -38.508  15.602 -17.002  0.00  0.00    +0.337 C 
ATOM     15  O   UNL     1     -39.046  16.257 -16.068  0.00  0.00    -0.248 OA
BRANCH  14  16
ATOM     16  O   UNL     1     -38.595  16.061 -18.312  0.00  0.00    -0.479 OA
ATOM     17  H   UNL     1     -37.759  16.274 -18.845  0.00  0.00    +0.295 HD
ENDBRANCH  14  16
ENDBRANCH   6  14
ENDBRANCH   1   2
BRANCH   1  21
ATOM     18  C   UNL     1     -32.019  14.423 -14.143  0.00  0.00    +0.280 C 
ATOM     19  C   UNL     1     -32.888  15.556 -14.749  0.00  0.00    +0.201 C 
ATOM     20  C   UNL     1     -34.245  15.011 -15.246  0.00  0.00    +0.180 C 
ATOM     21  C   UNL     1     -34.097  13.553 -15.711  0.00  0.00    +0.192 C 
ATOM     22  C   UNL     1     -33.589  12.697 -14.509  0.00  0.00    +0.260 C 
ATOM     23  O   UNL     1     -32.827  13.422 -13.547  0.00  0.00    -0.332 OA
BRANCH  18  24
ATOM     24  O   UNL     1     -31.138  14.949 -13.186  0.00  0.00    -0.365 OA
ATOM     25  H   UNL     1     -31.679  15.500 -12.561  0.00  0.00    +0.213 HD
ENDBRANCH  18  24
BRANCH  19  26
ATOM     26  O   UNL     1     -32.192  16.161 -15.811  0.00  0.00    -0.384 OA
ATOM     27  H   UNL     1     -32.508  15.727 -16.645  0.00  0.00    +0.210 HD
ENDBRANCH  19  26
BRANCH  20  28
ATOM     28  O   UNL     1     -34.734  15.813 -16.292  0.00  0.00    -0.386 OA
ATOM     29  H   UNL     1     -35.718  15.679 -16.325  0.00  0.00    +0.210 HD
ENDBRANCH  20  28
BRANCH  22  30
ATOM     30  C   UNL     1     -32.831  11.476 -14.956  0.00  0.00    +0.337 C 
ATOM     31  O   UNL     1     -32.638  11.272 -16.185  0.00  0.00    -0.248 OA
BRANCH  30  32
ATOM     32  O   UNL     1     -32.361  10.556 -14.024  0.00  0.00    -0.479 OA
ATOM     33  H   UNL     1     -31.493  10.058 -14.177  0.00  0.00    +0.295 HD
ENDBRANCH  30  32
ENDBRANCH  22  30
ENDBRANCH   1  21
TORSDOF 12
ENDMDL
