MODEL 17
REMARK VINA RESULT:    -6.028      3.906      7.119
REMARK INTER + INTRA:          -9.964
REMARK INTER:                  -9.377
REMARK INTRA:                  -0.587
REMARK UNBOUND:                -1.116
REMARK  Name = BEM
REMARK  12 active torsions:
REMARK  status: ('A' for Active; 'I' for Inactive)
REMARK    1  A    between atoms: C_1  and  O_20
REMARK    2  A    between atoms: C_2  and  O_3
REMARK    3  A    between atoms: C_4  and  O_5
REMARK    4  A    between atoms: C_6  and  O_7
REMARK    5  A    between atoms: C_8  and  C_10
REMARK    6  A    between atoms: C_10  and  O_11
REMARK    7  A    between atoms: C_13  and  O_14
REMARK    8  A    between atoms: C_15  and  O_16
REMARK    9  A    between atoms: C_17  and  O_18
REMARK   10  A    between atoms: C_19  and  O_20
REMARK   11  A    between atoms: C_21  and  C_23
REMARK   12  A    between atoms: C_23  and  O_25
REMARK                            x       y       z     vdW  Elec       q    Type
REMARK                         _______ _______ _______ _____ _____    ______ ____
ROOT
ATOM      1  O   UNL     1     -33.681  10.470 -11.824  0.00  0.00    -0.340 OA
ENDROOT
BRANCH   1   2
ATOM      2  C   UNL     1     -34.638  11.165 -12.613  0.00  0.00    +0.283 C 
ATOM      3  C   UNL     1     -35.009  10.356 -13.877  0.00  0.00    +0.201 C 
ATOM      4  C   UNL     1     -33.801  10.268 -14.827  0.00  0.00    +0.179 C 
ATOM      5  C   UNL     1     -33.223  11.669 -15.084  0.00  0.00    +0.185 C 
ATOM      6  C   UNL     1     -32.961  12.372 -13.736  0.00  0.00    +0.260 C 
ATOM      7  O   UNL     1     -34.147  12.450 -12.961  0.00  0.00    -0.332 OA
BRANCH   3   8
ATOM      8  O   UNL     1     -36.085  10.971 -14.540  0.00  0.00    -0.384 OA
ATOM      9  H   UNL     1     -35.879  11.941 -14.583  0.00  0.00    +0.210 HD
ENDBRANCH   3   8
BRANCH   4  10
ATOM     10  O   UNL     1     -34.183   9.685 -16.046  0.00  0.00    -0.386 OA
ATOM     11  H   UNL     1     -33.356   9.582 -16.586  0.00  0.00    +0.210 HD
ENDBRANCH   4  10
BRANCH   5  12
ATOM     12  O   UNL     1     -32.019  11.562 -15.800  0.00  0.00    -0.386 OA
ATOM     13  H   UNL     1     -32.117  12.121 -16.615  0.00  0.00    +0.210 HD
ENDBRANCH   5  12
BRANCH   6  14
ATOM     14  C   UNL     1     -32.454  13.764 -13.976  0.00  0.00    +0.337 C 
ATOM     15  O   UNL     1     -33.178  14.759 -13.700  0.00  0.00    -0.248 OA
BRANCH  14  16
ATOM     16  O   UNL     1     -31.195  13.956 -14.537  0.00  0.00    -0.479 OA
ATOM     17  H   UNL     1     -30.974  13.588 -15.455  0.00  0.00    +0.295 HD
ENDBRANCH  14  16
ENDBRANCH   6  14
ENDBRANCH   1   2
BRANCH   1  21
ATOM     18  C   UNL     1     -36.002   8.398  -9.119  0.00  0.00    +0.280 C 
ATOM     19  C   UNL     1     -36.178   9.937  -9.049  0.00  0.00    +0.201 C 
ATOM     20  C   UNL     1     -35.492  10.630 -10.248  0.00  0.00    +0.180 C 
ATOM     21  C   UNL     1     -34.272   9.818 -10.709  0.00  0.00    +0.192 C 
ATOM     22  C   UNL     1     -34.752   8.392 -11.123  0.00  0.00    +0.260 C 
ATOM     23  O   UNL     1     -35.936   7.951 -10.463  0.00  0.00    -0.332 OA
BRANCH  18  24
ATOM     24  O   UNL     1     -37.065   7.760  -8.462  0.00  0.00    -0.365 OA
ATOM     25  H   UNL     1     -37.139   6.846  -8.843  0.00  0.00    +0.213 HD
ENDBRANCH  18  24
BRANCH  19  26
ATOM     26  O   UNL     1     -35.638  10.414  -7.841  0.00  0.00    -0.384 OA
ATOM     27  H   UNL     1     -36.261  11.109  -7.504  0.00  0.00    +0.210 HD
ENDBRANCH  19  26
BRANCH  20  28
ATOM     28  O   UNL     1     -35.109  11.936  -9.896  0.00  0.00    -0.386 OA
ATOM     29  H   UNL     1     -34.117  11.944  -9.845  0.00  0.00    +0.210 HD
ENDBRANCH  20  28
BRANCH  22  30
ATOM     30  C   UNL     1     -33.667   7.359 -10.982  0.00  0.00    +0.337 C 
ATOM     31  O   UNL     1     -32.778   7.498 -10.099  0.00  0.00    -0.248 OA
BRANCH  30  32
ATOM     32  O   UNL     1     -33.621   6.261 -11.837  0.00  0.00    -0.479 OA
ATOM     33  H   UNL     1     -33.079   5.440 -11.599  0.00  0.00    +0.295 HD
ENDBRANCH  30  32
ENDBRANCH  22  30
ENDBRANCH   1  21
TORSDOF 12
ENDMDL
