MODEL 2
REMARK VINA RESULT:    -7.282      1.010      2.786
REMARK INTER + INTRA:         -11.804
REMARK INTER:                 -10.516
REMARK INTRA:                  -1.289
REMARK UNBOUND:                -1.116
REMARK  Name = BEM
REMARK  12 active torsions:
REMARK  status: ('A' for Active; 'I' for Inactive)
REMARK    1  A    between atoms: C_1  and  O_20
REMARK    2  A    between atoms: C_2  and  O_3
REMARK    3  A    between atoms: C_4  and  O_5
REMARK    4  A    between atoms: C_6  and  O_7
REMARK    5  A    between atoms: C_8  and  C_10
REMARK    6  A    between atoms: C_10  and  O_11
REMARK    7  A    between atoms: C_13  and  O_14
REMARK    8  A    between atoms: C_15  and  O_16
REMARK    9  A    between atoms: C_17  and  O_18
REMARK   10  A    between atoms: C_19  and  O_20
REMARK   11  A    between atoms: C_21  and  C_23
REMARK   12  A    between atoms: C_23  and  O_25
REMARK                            x       y       z     vdW  Elec       q    Type
REMARK                         _______ _______ _______ _____ _____    ______ ____
ROOT
ATOM      1  O   UNL     1     -34.879  12.852 -16.600  0.00  0.00    -0.340 OA
ENDROOT
BRANCH   1   2
ATOM      2  C   UNL     1     -35.084  13.083 -15.212  0.00  0.00    +0.283 C 
ATOM      3  C   UNL     1     -34.819  14.563 -14.850  0.00  0.00    +0.201 C 
ATOM      4  C   UNL     1     -33.327  14.895 -15.020  0.00  0.00    +0.179 C 
ATOM      5  C   UNL     1     -32.464  13.866 -14.273  0.00  0.00    +0.185 C 
ATOM      6  C   UNL     1     -32.882  12.441 -14.693  0.00  0.00    +0.260 C 
ATOM      7  O   UNL     1     -34.261  12.219 -14.444  0.00  0.00    -0.332 OA
BRANCH   3   8
ATOM      8  O   UNL     1     -35.206  14.806 -13.521  0.00  0.00    -0.384 OA
ATOM      9  H   UNL     1     -34.967  15.748 -13.319  0.00  0.00    +0.210 HD
ENDBRANCH   3   8
BRANCH   4  10
ATOM     10  O   UNL     1     -33.056  16.182 -14.530  0.00  0.00    -0.386 OA
ATOM     11  H   UNL     1     -33.637  16.314 -13.735  0.00  0.00    +0.210 HD
ENDBRANCH   4  10
BRANCH   5  12
ATOM     12  O   UNL     1     -31.108  14.068 -14.582  0.00  0.00    -0.386 OA
ATOM     13  H   UNL     1     -30.689  13.170 -14.644  0.00  0.00    +0.210 HD
ENDBRANCH   5  12
BRANCH   6  14
ATOM     14  C   UNL     1     -32.087  11.427 -13.922  0.00  0.00    +0.337 C 
ATOM     15  O   UNL     1     -32.345  11.210 -12.707  0.00  0.00    -0.248 OA
BRANCH  14  16
ATOM     16  O   UNL     1     -31.041  10.751 -14.542  0.00  0.00    -0.479 OA
ATOM     17  H   UNL     1     -30.715   9.860 -14.185  0.00  0.00    +0.295 HD
ENDBRANCH  14  16
ENDBRANCH   6  14
ENDBRANCH   1   2
BRANCH   1  21
ATOM     18  C   UNL     1     -36.231   9.508 -18.595  0.00  0.00    +0.280 C 
ATOM     19  C   UNL     1     -37.286  10.639 -18.477  0.00  0.00    +0.201 C 
ATOM     20  C   UNL     1     -36.644  11.946 -17.962  0.00  0.00    +0.180 C 
ATOM     21  C   UNL     1     -35.458  11.631 -17.036  0.00  0.00    +0.192 C 
ATOM     22  C   UNL     1     -34.407  10.804 -17.839  0.00  0.00    +0.260 C 
ATOM     23  O   UNL     1     -34.951  10.033 -18.907  0.00  0.00    -0.332 OA
BRANCH  18  24
ATOM     24  O   UNL     1     -36.617   8.589 -19.583  0.00  0.00    -0.365 OA
ATOM     25  H   UNL     1     -36.002   7.812 -19.517  0.00  0.00    +0.213 HD
ENDBRANCH  18  24
BRANCH  19  26
ATOM     26  O   UNL     1     -38.314  10.230 -17.609  0.00  0.00    -0.384 OA
ATOM     27  H   UNL     1     -39.109  10.044 -18.174  0.00  0.00    +0.210 HD
ENDBRANCH  19  26
BRANCH  20  28
ATOM     28  O   UNL     1     -37.602  12.722 -17.286  0.00  0.00    -0.386 OA
ATOM     29  H   UNL     1     -37.198  12.994 -16.421  0.00  0.00    +0.210 HD
ENDBRANCH  20  28
BRANCH  22  30
ATOM     30  C   UNL     1     -33.564   9.931 -16.948  0.00  0.00    +0.337 C 
ATOM     31  O   UNL     1     -32.340   9.769 -17.205  0.00  0.00    -0.248 OA
BRANCH  30  32
ATOM     32  O   UNL     1     -34.129   9.280 -15.856  0.00  0.00    -0.479 OA
ATOM     33  H   UNL     1     -34.468   9.803 -15.058  0.00  0.00    +0.295 HD
ENDBRANCH  30  32
ENDBRANCH  22  30
ENDBRANCH   1  21
TORSDOF 12
ENDMDL
