MODEL 3
REMARK VINA RESULT:    -7.028      1.355      2.943
REMARK INTER + INTRA:         -11.431
REMARK INTER:                  -9.778
REMARK INTRA:                  -1.653
REMARK UNBOUND:                -1.116
REMARK  Name = BEM
REMARK  12 active torsions:
REMARK  status: ('A' for Active; 'I' for Inactive)
REMARK    1  A    between atoms: C_1  and  O_20
REMARK    2  A    between atoms: C_2  and  O_3
REMARK    3  A    between atoms: C_4  and  O_5
REMARK    4  A    between atoms: C_6  and  O_7
REMARK    5  A    between atoms: C_8  and  C_10
REMARK    6  A    between atoms: C_10  and  O_11
REMARK    7  A    between atoms: C_13  and  O_14
REMARK    8  A    between atoms: C_15  and  O_16
REMARK    9  A    between atoms: C_17  and  O_18
REMARK   10  A    between atoms: C_19  and  O_20
REMARK   11  A    between atoms: C_21  and  C_23
REMARK   12  A    between atoms: C_23  and  O_25
REMARK                            x       y       z     vdW  Elec       q    Type
REMARK                         _______ _______ _______ _____ _____    ______ ____
ROOT
ATOM      1  O   UNL     1     -35.562  11.203 -15.872  0.00  0.00    -0.340 OA
ENDROOT
BRANCH   1   2
ATOM      2  C   UNL     1     -34.246  11.656 -16.160  0.00  0.00    +0.283 C 
ATOM      3  C   UNL     1     -33.253  11.217 -15.058  0.00  0.00    +0.201 C 
ATOM      4  C   UNL     1     -33.569  11.940 -13.737  0.00  0.00    +0.179 C 
ATOM      5  C   UNL     1     -33.668  13.456 -13.971  0.00  0.00    +0.185 C 
ATOM      6  C   UNL     1     -34.645  13.735 -15.132  0.00  0.00    +0.260 C 
ATOM      7  O   UNL     1     -34.236  13.067 -16.316  0.00  0.00    -0.332 OA
BRANCH   3   8
ATOM      8  O   UNL     1     -31.938  11.512 -15.455  0.00  0.00    -0.384 OA
ATOM      9  H   UNL     1     -31.785  11.041 -16.315  0.00  0.00    +0.210 HD
ENDBRANCH   3   8
BRANCH   4  10
ATOM     10  O   UNL     1     -32.569  11.674 -12.787  0.00  0.00    -0.386 OA
ATOM     11  H   UNL     1     -32.348  12.541 -12.355  0.00  0.00    +0.210 HD
ENDBRANCH   4  10
BRANCH   5  12
ATOM     12  O   UNL     1     -34.133  14.087 -12.805  0.00  0.00    -0.386 OA
ATOM     13  H   UNL     1     -34.287  13.373 -12.132  0.00  0.00    +0.210 HD
ENDBRANCH   5  12
BRANCH   6  14
ATOM     14  C   UNL     1     -34.702  15.208 -15.410  0.00  0.00    +0.337 C 
ATOM     15  O   UNL     1     -35.609  15.680 -16.149  0.00  0.00    -0.248 OA
BRANCH  14  16
ATOM     16  O   UNL     1     -33.731  16.051 -14.878  0.00  0.00    -0.479 OA
ATOM     17  H   UNL     1     -32.769  15.996 -15.190  0.00  0.00    +0.295 HD
ENDBRANCH  14  16
ENDBRANCH   6  14
ENDBRANCH   1   2
BRANCH   1  21
ATOM     18  C   UNL     1     -38.289  10.095 -18.757  0.00  0.00    +0.280 C 
ATOM     19  C   UNL     1     -37.318   8.960 -18.341  0.00  0.00    +0.201 C 
ATOM     20  C   UNL     1     -36.508   9.354 -17.087  0.00  0.00    +0.180 C 
ATOM     21  C   UNL     1     -36.289  10.875 -17.047  0.00  0.00    +0.192 C 
ATOM     22  C   UNL     1     -37.682  11.577 -17.021  0.00  0.00    +0.260 C 
ATOM     23  O   UNL     1     -38.733  10.829 -17.628  0.00  0.00    -0.332 OA
BRANCH  18  24
ATOM     24  O   UNL     1     -39.395   9.560 -19.436  0.00  0.00    -0.365 OA
ATOM     25  H   UNL     1     -40.048   9.267 -18.747  0.00  0.00    +0.213 HD
ENDBRANCH  18  24
BRANCH  19  26
ATOM     26  O   UNL     1     -36.449   8.674 -19.409  0.00  0.00    -0.384 OA
ATOM     27  H   UNL     1     -36.877   9.032 -20.230  0.00  0.00    +0.210 HD
ENDBRANCH  19  26
BRANCH  20  28
ATOM     28  O   UNL     1     -35.274   8.679 -17.077  0.00  0.00    -0.386 OA
ATOM     29  H   UNL     1     -34.680   9.170 -16.451  0.00  0.00    +0.210 HD
ENDBRANCH  20  28
BRANCH  22  30
ATOM     30  C   UNL     1     -37.635  12.965 -17.600  0.00  0.00    +0.337 C 
ATOM     31  O   UNL     1     -38.692  13.648 -17.681  0.00  0.00    -0.248 OA
BRANCH  30  32
ATOM     32  O   UNL     1     -36.437  13.494 -18.071  0.00  0.00    -0.479 OA
ATOM     33  H   UNL     1     -35.872  12.986 -18.741  0.00  0.00    +0.295 HD
ENDBRANCH  30  32
ENDBRANCH  22  30
ENDBRANCH   1  21
TORSDOF 12
ENDMDL
