MODEL 10
REMARK VINA RESULT:    -6.447      3.215      6.528
REMARK INTER + INTRA:         -10.579
REMARK INTER:                  -9.171
REMARK INTRA:                  -1.408
REMARK UNBOUND:                -1.116
REMARK  Name = BEM
REMARK  12 active torsions:
REMARK  status: ('A' for Active; 'I' for Inactive)
REMARK    1  A    between atoms: C_1  and  O_20
REMARK    2  A    between atoms: C_2  and  O_3
REMARK    3  A    between atoms: C_4  and  O_5
REMARK    4  A    between atoms: C_6  and  O_7
REMARK    5  A    between atoms: C_8  and  C_10
REMARK    6  A    between atoms: C_10  and  O_11
REMARK    7  A    between atoms: C_13  and  O_14
REMARK    8  A    between atoms: C_15  and  O_16
REMARK    9  A    between atoms: C_17  and  O_18
REMARK   10  A    between atoms: C_19  and  O_20
REMARK   11  A    between atoms: C_21  and  C_23
REMARK   12  A    between atoms: C_23  and  O_25
REMARK                            x       y       z     vdW  Elec       q    Type
REMARK                         _______ _______ _______ _____ _____    ______ ____
ROOT
ATOM      1  O   UNL     1     -35.264  11.550 -12.784  0.00  0.00    -0.340 OA
ENDROOT
BRANCH   1   2
ATOM      2  C   UNL     1     -34.360  12.519 -13.300  0.00  0.00    +0.283 C 
ATOM      3  C   UNL     1     -35.118  13.754 -13.839  0.00  0.00    +0.201 C 
ATOM      4  C   UNL     1     -35.937  13.375 -15.085  0.00  0.00    +0.179 C 
ATOM      5  C   UNL     1     -35.049  12.646 -16.106  0.00  0.00    +0.185 C 
ATOM      6  C   UNL     1     -34.317  11.480 -15.410  0.00  0.00    +0.260 C 
ATOM      7  O   UNL     1     -33.547  11.942 -14.311  0.00  0.00    -0.332 OA
BRANCH   3   8
ATOM      8  O   UNL     1     -34.202  14.769 -14.169  0.00  0.00    -0.384 OA
ATOM      9  H   UNL     1     -33.945  15.211 -13.319  0.00  0.00    +0.210 HD
ENDBRANCH   3   8
BRANCH   4  10
ATOM     10  O   UNL     1     -36.486  14.525 -15.674  0.00  0.00    -0.386 OA
ATOM     11  H   UNL     1     -36.720  15.143 -14.932  0.00  0.00    +0.210 HD
ENDBRANCH   4  10
BRANCH   5  12
ATOM     12  O   UNL     1     -35.841  12.145 -17.153  0.00  0.00    -0.386 OA
ATOM     13  H   UNL     1     -36.041  11.197 -16.935  0.00  0.00    +0.210 HD
ENDBRANCH   5  12
BRANCH   6  14
ATOM     14  C   UNL     1     -33.399  10.799 -16.383  0.00  0.00    +0.337 C 
ATOM     15  O   UNL     1     -33.852   9.942 -17.189  0.00  0.00    -0.248 OA
BRANCH  14  16
ATOM     16  O   UNL     1     -32.038  11.090 -16.371  0.00  0.00    -0.479 OA
ATOM     17  H   UNL     1     -31.682  11.884 -15.852  0.00  0.00    +0.295 HD
ENDBRANCH  14  16
ENDBRANCH   6  14
ENDBRANCH   1   2
BRANCH   1  21
ATOM     18  C   UNL     1     -34.575   9.359  -9.362  0.00  0.00    +0.280 C 
ATOM     19  C   UNL     1     -35.196  10.755  -9.100  0.00  0.00    +0.201 C 
ATOM     20  C   UNL     1     -35.669  11.410 -10.417  0.00  0.00    +0.180 C 
ATOM     21  C   UNL     1     -34.788  10.949 -11.589  0.00  0.00    +0.192 C 
ATOM     22  C   UNL     1     -34.885   9.396 -11.703  0.00  0.00    +0.260 C 
ATOM     23  O   UNL     1     -35.183   8.730 -10.478  0.00  0.00    -0.332 OA
BRANCH  18  24
ATOM     24  O   UNL     1     -34.719   8.546  -8.227  0.00  0.00    -0.365 OA
ATOM     25  H   UNL     1     -35.690   8.494  -8.025  0.00  0.00    +0.213 HD
ENDBRANCH  18  24
BRANCH  19  26
ATOM     26  O   UNL     1     -34.248  11.577  -8.465  0.00  0.00    -0.384 OA
ATOM     27  H   UNL     1     -33.410  11.048  -8.398  0.00  0.00    +0.210 HD
ENDBRANCH  19  26
BRANCH  20  28
ATOM     28  O   UNL     1     -35.638  12.810 -10.299  0.00  0.00    -0.386 OA
ATOM     29  H   UNL     1     -35.117  13.021  -9.480  0.00  0.00    +0.210 HD
ENDBRANCH  20  28
BRANCH  22  30
ATOM     30  C   UNL     1     -33.660   8.791 -12.336  0.00  0.00    +0.337 C 
ATOM     31  O   UNL     1     -33.489   7.542 -12.303  0.00  0.00    -0.248 OA
BRANCH  30  32
ATOM     32  O   UNL     1     -32.702   9.601 -12.937  0.00  0.00    -0.479 OA
ATOM     33  H   UNL     1     -32.610  10.576 -12.679  0.00  0.00    +0.295 HD
ENDBRANCH  30  32
ENDBRANCH  22  30
ENDBRANCH   1  21
TORSDOF 12
ENDMDL
