MODEL 18
REMARK VINA RESULT:    -6.000      3.703      6.062
REMARK INTER + INTRA:          -9.922
REMARK INTER:                  -8.430
REMARK INTRA:                  -1.492
REMARK UNBOUND:                -1.116
REMARK  Name = BEM
REMARK  12 active torsions:
REMARK  status: ('A' for Active; 'I' for Inactive)
REMARK    1  A    between atoms: C_1  and  O_20
REMARK    2  A    between atoms: C_2  and  O_3
REMARK    3  A    between atoms: C_4  and  O_5
REMARK    4  A    between atoms: C_6  and  O_7
REMARK    5  A    between atoms: C_8  and  C_10
REMARK    6  A    between atoms: C_10  and  O_11
REMARK    7  A    between atoms: C_13  and  O_14
REMARK    8  A    between atoms: C_15  and  O_16
REMARK    9  A    between atoms: C_17  and  O_18
REMARK   10  A    between atoms: C_19  and  O_20
REMARK   11  A    between atoms: C_21  and  C_23
REMARK   12  A    between atoms: C_23  and  O_25
REMARK                            x       y       z     vdW  Elec       q    Type
REMARK                         _______ _______ _______ _____ _____    ______ ____
ROOT
ATOM      1  O   UNL     1     -35.817   9.381 -14.204  0.00  0.00    -0.340 OA
ENDROOT
BRANCH   1   2
ATOM      2  C   UNL     1     -35.743  10.734 -14.634  0.00  0.00    +0.283 C 
ATOM      3  C   UNL     1     -35.913  10.840 -16.168  0.00  0.00    +0.201 C 
ATOM      4  C   UNL     1     -34.709  10.202 -16.883  0.00  0.00    +0.179 C 
ATOM      5  C   UNL     1     -33.395  10.769 -16.322  0.00  0.00    +0.185 C 
ATOM      6  C   UNL     1     -33.397  10.648 -14.784  0.00  0.00    +0.260 C 
ATOM      7  O   UNL     1     -34.516  11.314 -14.220  0.00  0.00    -0.332 OA
BRANCH   3   8
ATOM      8  O   UNL     1     -36.023  12.189 -16.544  0.00  0.00    -0.384 OA
ATOM      9  H   UNL     1     -36.171  12.708 -15.711  0.00  0.00    +0.210 HD
ENDBRANCH   3   8
BRANCH   4  10
ATOM     10  O   UNL     1     -34.778  10.448 -18.263  0.00  0.00    -0.386 OA
ATOM     11  H   UNL     1     -33.844  10.570 -18.579  0.00  0.00    +0.210 HD
ENDBRANCH   4  10
BRANCH   5  12
ATOM     12  O   UNL     1     -32.306  10.053 -16.848  0.00  0.00    -0.386 OA
ATOM     13  H   UNL     1     -32.618   9.632 -17.692  0.00  0.00    +0.210 HD
ENDBRANCH   5  12
BRANCH   6  14
ATOM     14  C   UNL     1     -32.145  11.255 -14.222  0.00  0.00    +0.337 C 
ATOM     15  O   UNL     1     -32.215  12.245 -13.443  0.00  0.00    -0.248 OA
BRANCH  14  16
ATOM     16  O   UNL     1     -30.903  10.746 -14.588  0.00  0.00    -0.479 OA
ATOM     17  H   UNL     1     -30.751  10.364 -15.515  0.00  0.00    +0.295 HD
ENDBRANCH  14  16
ENDBRANCH   6  14
ENDBRANCH   1   2
BRANCH   1  21
ATOM     18  C   UNL     1     -36.747   8.251 -10.351  0.00  0.00    +0.280 C 
ATOM     19  C   UNL     1     -37.981   8.390 -11.280  0.00  0.00    +0.201 C 
ATOM     20  C   UNL     1     -37.550   8.554 -12.755  0.00  0.00    +0.180 C 
ATOM     21  C   UNL     1     -36.192   9.268 -12.839  0.00  0.00    +0.192 C 
ATOM     22  C   UNL     1     -35.135   8.418 -12.068  0.00  0.00    +0.260 C 
ATOM     23  O   UNL     1     -35.672   7.614 -11.020  0.00  0.00    -0.332 OA
BRANCH  18  24
ATOM     24  O   UNL     1     -37.088   7.517  -9.203  0.00  0.00    -0.365 OA
ATOM     25  H   UNL     1     -38.067   7.355  -9.239  0.00  0.00    +0.213 HD
ENDBRANCH  18  24
BRANCH  19  26
ATOM     26  O   UNL     1     -38.748   9.497 -10.875  0.00  0.00    -0.384 OA
ATOM     27  H   UNL     1     -38.163  10.056 -10.300  0.00  0.00    +0.210 HD
ENDBRANCH  19  26
BRANCH  20  28
ATOM     28  O   UNL     1     -38.528   9.271 -13.467  0.00  0.00    -0.386 OA
ATOM     29  H   UNL     1     -38.063   9.734 -14.212  0.00  0.00    +0.210 HD
ENDBRANCH  20  28
BRANCH  22  30
ATOM     30  C   UNL     1     -33.997   9.253 -11.547  0.00  0.00    +0.337 C 
ATOM     31  O   UNL     1     -32.905   8.703 -11.237  0.00  0.00    -0.248 OA
BRANCH  30  32
ATOM     32  O   UNL     1     -34.147  10.627 -11.382  0.00  0.00    -0.479 OA
ATOM     33  H   UNL     1     -34.278  11.028 -10.461  0.00  0.00    +0.295 HD
ENDBRANCH  30  32
ENDBRANCH  22  30
ENDBRANCH   1  21
TORSDOF 12
ENDMDL
