MODEL 13
REMARK VINA RESULT:    -6.279      3.945      6.792
REMARK INTER + INTRA:         -10.332
REMARK INTER:                  -9.393
REMARK INTRA:                  -0.939
REMARK UNBOUND:                -1.116
REMARK  Name = BEM
REMARK  12 active torsions:
REMARK  status: ('A' for Active; 'I' for Inactive)
REMARK    1  A    between atoms: C_1  and  O_20
REMARK    2  A    between atoms: C_2  and  O_3
REMARK    3  A    between atoms: C_4  and  O_5
REMARK    4  A    between atoms: C_6  and  O_7
REMARK    5  A    between atoms: C_8  and  C_10
REMARK    6  A    between atoms: C_10  and  O_11
REMARK    7  A    between atoms: C_13  and  O_14
REMARK    8  A    between atoms: C_15  and  O_16
REMARK    9  A    between atoms: C_17  and  O_18
REMARK   10  A    between atoms: C_19  and  O_20
REMARK   11  A    between atoms: C_21  and  C_23
REMARK   12  A    between atoms: C_23  and  O_25
REMARK                            x       y       z     vdW  Elec       q    Type
REMARK                         _______ _______ _______ _____ _____    ______ ____
ROOT
ATOM      1  O   UNL     1     -33.810  10.385 -11.884  0.00  0.00    -0.340 OA
ENDROOT
BRANCH   1   2
ATOM      2  C   UNL     1     -34.722  11.107 -12.701  0.00  0.00    +0.283 C 
ATOM      3  C   UNL     1     -35.053  10.321 -13.992  0.00  0.00    +0.201 C 
ATOM      4  C   UNL     1     -33.809  10.226 -14.892  0.00  0.00    +0.179 C 
ATOM      5  C   UNL     1     -33.198  11.620 -15.106  0.00  0.00    +0.185 C 
ATOM      6  C   UNL     1     -32.980  12.301 -13.738  0.00  0.00    +0.260 C 
ATOM      7  O   UNL     1     -34.195  12.388 -13.011  0.00  0.00    -0.332 OA
BRANCH   3   8
ATOM      8  O   UNL     1     -36.091  10.963 -14.689  0.00  0.00    -0.384 OA
ATOM      9  H   UNL     1     -35.870  10.900 -15.654  0.00  0.00    +0.210 HD
ENDBRANCH   3   8
BRANCH   4  10
ATOM     10  O   UNL     1     -34.150   9.665 -16.133  0.00  0.00    -0.386 OA
ATOM     11  H   UNL     1     -33.606   8.840 -16.234  0.00  0.00    +0.210 HD
ENDBRANCH   4  10
BRANCH   5  12
ATOM     12  O   UNL     1     -31.967  11.502 -15.773  0.00  0.00    -0.386 OA
ATOM     13  H   UNL     1     -32.023  12.074 -16.583  0.00  0.00    +0.210 HD
ENDBRANCH   5  12
BRANCH   6  14
ATOM     14  C   UNL     1     -32.441  13.687 -13.938  0.00  0.00    +0.337 C 
ATOM     15  O   UNL     1     -33.108  14.688 -13.557  0.00  0.00    -0.248 OA
BRANCH  14  16
ATOM     16  O   UNL     1     -31.218  13.870 -14.576  0.00  0.00    -0.479 OA
ATOM     17  H   UNL     1     -31.075  13.548 -15.526  0.00  0.00    +0.295 HD
ENDBRANCH  14  16
ENDBRANCH   6  14
ENDBRANCH   1   2
BRANCH   1  21
ATOM     18  C   UNL     1     -35.109   7.935  -8.834  0.00  0.00    +0.280 C 
ATOM     19  C   UNL     1     -34.285   7.200  -9.923  0.00  0.00    +0.201 C 
ATOM     20  C   UNL     1     -33.612   8.206 -10.884  0.00  0.00    +0.180 C 
ATOM     21  C   UNL     1     -34.467   9.476 -11.013  0.00  0.00    +0.192 C 
ATOM     22  C   UNL     1     -34.624  10.116  -9.599  0.00  0.00    +0.260 C 
ATOM     23  O   UNL     1     -34.534   9.192  -8.518  0.00  0.00    -0.332 OA
BRANCH  18  24
ATOM     24  O   UNL     1     -35.188   7.148  -7.675  0.00  0.00    -0.365 OA
ATOM     25  H   UNL     1     -34.913   7.721  -6.912  0.00  0.00    +0.213 HD
ENDBRANCH  18  24
BRANCH  19  26
ATOM     26  O   UNL     1     -35.128   6.334 -10.642  0.00  0.00    -0.384 OA
ATOM     27  H   UNL     1     -36.056   6.658 -10.505  0.00  0.00    +0.210 HD
ENDBRANCH  19  26
BRANCH  20  28
ATOM     28  O   UNL     1     -33.417   7.613 -12.144  0.00  0.00    -0.386 OA
ATOM     29  H   UNL     1     -33.376   6.632 -12.000  0.00  0.00    +0.210 HD
ENDBRANCH  20  28
BRANCH  22  30
ATOM     30  C   UNL     1     -35.881  10.935  -9.477  0.00  0.00    +0.337 C 
ATOM     31  O   UNL     1     -36.962  10.502  -9.962  0.00  0.00    -0.248 OA
BRANCH  30  32
ATOM     32  O   UNL     1     -35.857  12.178  -8.853  0.00  0.00    -0.479 OA
ATOM     33  H   UNL     1     -35.687  13.023  -9.384  0.00  0.00    +0.295 HD
ENDBRANCH  30  32
ENDBRANCH  22  30
ENDBRANCH   1  21
TORSDOF 12
ENDMDL
