MODEL 5
REMARK VINA RESULT:    -6.824      1.605      3.916
REMARK INTER + INTRA:         -11.133
REMARK INTER:                 -10.304
REMARK INTRA:                  -0.828
REMARK UNBOUND:                -1.116
REMARK  Name = BEM
REMARK  12 active torsions:
REMARK  status: ('A' for Active; 'I' for Inactive)
REMARK    1  A    between atoms: C_1  and  O_20
REMARK    2  A    between atoms: C_2  and  O_3
REMARK    3  A    between atoms: C_4  and  O_5
REMARK    4  A    between atoms: C_6  and  O_7
REMARK    5  A    between atoms: C_8  and  C_10
REMARK    6  A    between atoms: C_10  and  O_11
REMARK    7  A    between atoms: C_13  and  O_14
REMARK    8  A    between atoms: C_15  and  O_16
REMARK    9  A    between atoms: C_17  and  O_18
REMARK   10  A    between atoms: C_19  and  O_20
REMARK   11  A    between atoms: C_21  and  C_23
REMARK   12  A    between atoms: C_23  and  O_25
REMARK                            x       y       z     vdW  Elec       q    Type
REMARK                         _______ _______ _______ _____ _____    ______ ____
ROOT
ATOM      1  O   UNL     1     -35.300  10.578 -15.698  0.00  0.00    -0.340 OA
ENDROOT
BRANCH   1   2
ATOM      2  C   UNL     1     -34.325  11.223 -16.507  0.00  0.00    +0.283 C 
ATOM      3  C   UNL     1     -32.919  10.626 -16.265  0.00  0.00    +0.201 C 
ATOM      4  C   UNL     1     -32.436  10.959 -14.842  0.00  0.00    +0.179 C 
ATOM      5  C   UNL     1     -32.570  12.466 -14.573  0.00  0.00    +0.185 C 
ATOM      6  C   UNL     1     -34.004  12.924 -14.914  0.00  0.00    +0.260 C 
ATOM      7  O   UNL     1     -34.330  12.621 -16.261  0.00  0.00    -0.332 OA
BRANCH   3   8
ATOM      8  O   UNL     1     -32.012  11.147 -17.203  0.00  0.00    -0.384 OA
ATOM      9  H   UNL     1     -32.534  11.360 -18.020  0.00  0.00    +0.210 HD
ENDBRANCH   3   8
BRANCH   4  10
ATOM     10  O   UNL     1     -31.098  10.568 -14.680  0.00  0.00    -0.386 OA
ATOM     11  H   UNL     1     -30.916  10.570 -13.703  0.00  0.00    +0.210 HD
ENDBRANCH   4  10
BRANCH   5  12
ATOM     12  O   UNL     1     -32.302  12.733 -13.220  0.00  0.00    -0.386 OA
ATOM     13  H   UNL     1     -32.196  11.855 -12.768  0.00  0.00    +0.210 HD
ENDBRANCH   5  12
BRANCH   6  14
ATOM     14  C   UNL     1     -34.128  14.406 -14.714  0.00  0.00    +0.337 C 
ATOM     15  O   UNL     1     -33.165  15.168 -15.001  0.00  0.00    -0.248 OA
BRANCH  14  16
ATOM     16  O   UNL     1     -35.297  14.937 -14.178  0.00  0.00    -0.479 OA
ATOM     17  H   UNL     1     -35.319  15.290 -13.228  0.00  0.00    +0.295 HD
ENDBRANCH  14  16
ENDBRANCH   6  14
ENDBRANCH   1   2
BRANCH   1  21
ATOM     18  C   UNL     1     -38.682  10.777 -18.045  0.00  0.00    +0.280 C 
ATOM     19  C   UNL     1     -38.884  11.317 -16.605  0.00  0.00    +0.201 C 
ATOM     20  C   UNL     1     -37.532  11.459 -15.870  0.00  0.00    +0.180 C 
ATOM     21  C   UNL     1     -36.536  10.404 -16.376  0.00  0.00    +0.192 C 
ATOM     22  C   UNL     1     -36.331  10.608 -17.909  0.00  0.00    +0.260 C 
ATOM     23  O   UNL     1     -37.440  11.201 -18.580  0.00  0.00    -0.332 OA
BRANCH  18  24
ATOM     24  O   UNL     1     -39.726  11.215 -18.875  0.00  0.00    -0.365 OA
ATOM     25  H   UNL     1     -39.339  11.374 -19.775  0.00  0.00    +0.213 HD
ENDBRANCH  18  24
BRANCH  19  26
ATOM     26  O   UNL     1     -39.731  10.448 -15.895  0.00  0.00    -0.384 OA
ATOM     27  H   UNL     1     -40.327  11.017 -15.342  0.00  0.00    +0.210 HD
ENDBRANCH  19  26
BRANCH  20  28
ATOM     28  O   UNL     1     -37.721  11.332 -14.483  0.00  0.00    -0.386 OA
ATOM     29  H   UNL     1     -36.938  10.835 -14.128  0.00  0.00    +0.210 HD
ENDBRANCH  20  28
BRANCH  22  30
ATOM     30  C   UNL     1     -35.922   9.338 -18.607  0.00  0.00    +0.337 C 
ATOM     31  O   UNL     1     -36.059   8.229 -18.022  0.00  0.00    -0.248 OA
BRANCH  30  32
ATOM     32  O   UNL     1     -35.371   9.380 -19.884  0.00  0.00    -0.479 OA
ATOM     33  H   UNL     1     -34.397   9.152 -20.036  0.00  0.00    +0.295 HD
ENDBRANCH  30  32
ENDBRANCH  22  30
ENDBRANCH   1  21
TORSDOF 12
ENDMDL
