MODEL 14
REMARK VINA RESULT:    -6.101      1.643      6.133
REMARK INTER + INTRA:         -10.071
REMARK INTER:                  -9.509
REMARK INTRA:                  -0.562
REMARK UNBOUND:                -1.116
REMARK  Name = BEM
REMARK  12 active torsions:
REMARK  status: ('A' for Active; 'I' for Inactive)
REMARK    1  A    between atoms: C_1  and  O_20
REMARK    2  A    between atoms: C_2  and  O_3
REMARK    3  A    between atoms: C_4  and  O_5
REMARK    4  A    between atoms: C_6  and  O_7
REMARK    5  A    between atoms: C_8  and  C_10
REMARK    6  A    between atoms: C_10  and  O_11
REMARK    7  A    between atoms: C_13  and  O_14
REMARK    8  A    between atoms: C_15  and  O_16
REMARK    9  A    between atoms: C_17  and  O_18
REMARK   10  A    between atoms: C_19  and  O_20
REMARK   11  A    between atoms: C_21  and  C_23
REMARK   12  A    between atoms: C_23  and  O_25
REMARK                            x       y       z     vdW  Elec       q    Type
REMARK                         _______ _______ _______ _____ _____    ______ ____
ROOT
ATOM      1  O   UNL     1     -35.864  11.916 -15.599  0.00  0.00    -0.340 OA
ENDROOT
BRANCH   1   2
ATOM      2  C   UNL     1     -35.740  12.568 -16.856  0.00  0.00    +0.283 C 
ATOM      3  C   UNL     1     -37.023  13.360 -17.200  0.00  0.00    +0.201 C 
ATOM      4  C   UNL     1     -38.196  12.395 -17.445  0.00  0.00    +0.179 C 
ATOM      5  C   UNL     1     -37.794  11.315 -18.461  0.00  0.00    +0.185 C 
ATOM      6  C   UNL     1     -36.471  10.656 -18.016  0.00  0.00    +0.260 C 
ATOM      7  O   UNL     1     -35.442  11.622 -17.872  0.00  0.00    -0.332 OA
BRANCH   3   8
ATOM      8  O   UNL     1     -36.808  14.141 -18.349  0.00  0.00    -0.384 OA
ATOM      9  H   UNL     1     -37.609  14.030 -18.925  0.00  0.00    +0.210 HD
ENDBRANCH   3   8
BRANCH   4  10
ATOM     10  O   UNL     1     -39.313  13.099 -17.922  0.00  0.00    -0.386 OA
ATOM     11  H   UNL     1     -40.101  12.757 -17.425  0.00  0.00    +0.210 HD
ENDBRANCH   4  10
BRANCH   5  12
ATOM     12  O   UNL     1     -38.801  10.338 -18.541  0.00  0.00    -0.386 OA
ATOM     13  H   UNL     1     -38.345   9.460 -18.621  0.00  0.00    +0.210 HD
ENDBRANCH   5  12
BRANCH   6  14
ATOM     14  C   UNL     1     -36.037   9.642 -19.033  0.00  0.00    +0.337 C 
ATOM     15  O   UNL     1     -34.925   9.765 -19.617  0.00  0.00    -0.248 OA
BRANCH  14  16
ATOM     16  O   UNL     1     -36.878   8.583 -19.358  0.00  0.00    -0.479 OA
ATOM     17  H   UNL     1     -37.226   8.468 -20.303  0.00  0.00    +0.295 HD
ENDBRANCH  14  16
ENDBRANCH   6  14
ENDBRANCH   1   2
BRANCH   1  21
ATOM     18  C   UNL     1     -32.612  11.255 -13.154  0.00  0.00    +0.280 C 
ATOM     19  C   UNL     1     -32.700  12.702 -13.706  0.00  0.00    +0.201 C 
ATOM     20  C   UNL     1     -34.062  12.954 -14.389  0.00  0.00    +0.180 C 
ATOM     21  C   UNL     1     -34.603  11.652 -15.001  0.00  0.00    +0.192 C 
ATOM     22  C   UNL     1     -34.767  10.598 -13.862  0.00  0.00    +0.260 C 
ATOM     23  O   UNL     1     -33.888  10.781 -12.755  0.00  0.00    -0.332 OA
BRANCH  18  24
ATOM     24  O   UNL     1     -31.730  11.207 -12.063  0.00  0.00    -0.365 OA
ATOM     25  H   UNL     1     -31.338  12.114 -11.962  0.00  0.00    +0.213 HD
ENDBRANCH  18  24
BRANCH  19  26
ATOM     26  O   UNL     1     -31.653  12.917 -14.620  0.00  0.00    -0.384 OA
ATOM     27  H   UNL     1     -31.089  12.100 -14.607  0.00  0.00    +0.210 HD
ENDBRANCH  19  26
BRANCH  20  28
ATOM     28  O   UNL     1     -33.930  13.945 -15.378  0.00  0.00    -0.386 OA
ATOM     29  H   UNL     1     -34.528  13.688 -16.127  0.00  0.00    +0.210 HD
ENDBRANCH  20  28
BRANCH  22  30
ATOM     30  C   UNL     1     -34.670   9.185 -14.372  0.00  0.00    +0.337 C 
ATOM     31  O   UNL     1     -34.524   8.233 -13.557  0.00  0.00    -0.248 OA
BRANCH  30  32
ATOM     32  O   UNL     1     -34.716   8.922 -15.737  0.00  0.00    -0.479 OA
ATOM     33  H   UNL     1     -34.954   7.999 -16.081  0.00  0.00    +0.295 HD
ENDBRANCH  30  32
ENDBRANCH  22  30
ENDBRANCH   1  21
TORSDOF 12
ENDMDL
