MODEL 7
REMARK VINA RESULT:    -6.641      1.754      3.139
REMARK INTER + INTRA:         -10.863
REMARK INTER:                  -9.246
REMARK INTRA:                  -1.617
REMARK UNBOUND:                -1.116
REMARK  Name = BEM
REMARK  12 active torsions:
REMARK  status: ('A' for Active; 'I' for Inactive)
REMARK    1  A    between atoms: C_1  and  O_20
REMARK    2  A    between atoms: C_2  and  O_3
REMARK    3  A    between atoms: C_4  and  O_5
REMARK    4  A    between atoms: C_6  and  O_7
REMARK    5  A    between atoms: C_8  and  C_10
REMARK    6  A    between atoms: C_10  and  O_11
REMARK    7  A    between atoms: C_13  and  O_14
REMARK    8  A    between atoms: C_15  and  O_16
REMARK    9  A    between atoms: C_17  and  O_18
REMARK   10  A    between atoms: C_19  and  O_20
REMARK   11  A    between atoms: C_21  and  C_23
REMARK   12  A    between atoms: C_23  and  O_25
REMARK                            x       y       z     vdW  Elec       q    Type
REMARK                         _______ _______ _______ _____ _____    ______ ____
ROOT
ATOM      1  O   UNL     1     -35.094  10.519 -15.753  0.00  0.00    -0.340 OA
ENDROOT
BRANCH   1   2
ATOM      2  C   UNL     1     -34.340  11.724 -15.760  0.00  0.00    +0.283 C 
ATOM      3  C   UNL     1     -33.051  11.578 -14.919  0.00  0.00    +0.201 C 
ATOM      4  C   UNL     1     -33.402  11.420 -13.429  0.00  0.00    +0.179 C 
ATOM      5  C   UNL     1     -34.358  12.538 -12.985  0.00  0.00    +0.185 C 
ATOM      6  C   UNL     1     -35.561  12.599 -13.950  0.00  0.00    +0.260 C 
ATOM      7  O   UNL     1     -35.134  12.802 -15.288  0.00  0.00    -0.332 OA
BRANCH   3   8
ATOM      8  O   UNL     1     -32.237  12.711 -15.092  0.00  0.00    -0.384 OA
ATOM      9  H   UNL     1     -31.906  12.968 -14.192  0.00  0.00    +0.210 HD
ENDBRANCH   3   8
BRANCH   4  10
ATOM     10  O   UNL     1     -32.236  11.460 -12.648  0.00  0.00    -0.386 OA
ATOM     11  H   UNL     1     -31.843  12.364 -12.766  0.00  0.00    +0.210 HD
ENDBRANCH   4  10
BRANCH   5  12
ATOM     12  O   UNL     1     -34.816  12.282 -11.681  0.00  0.00    -0.386 OA
ATOM     13  H   UNL     1     -34.059  11.872 -11.185  0.00  0.00    +0.210 HD
ENDBRANCH   5  12
BRANCH   6  14
ATOM     14  C   UNL     1     -36.471  13.727 -13.562  0.00  0.00    +0.337 C 
ATOM     15  O   UNL     1     -36.197  14.450 -12.566  0.00  0.00    -0.248 OA
BRANCH  14  16
ATOM     16  O   UNL     1     -37.638  13.955 -14.284  0.00  0.00    -0.479 OA
ATOM     17  H   UNL     1     -38.497  14.216 -13.814  0.00  0.00    +0.295 HD
ENDBRANCH  14  16
ENDBRANCH   6  14
ENDBRANCH   1   2
BRANCH   1  21
ATOM     18  C   UNL     1     -37.426   9.251 -18.906  0.00  0.00    +0.280 C 
ATOM     19  C   UNL     1     -35.925   8.888 -19.049  0.00  0.00    +0.201 C 
ATOM     20  C   UNL     1     -35.162   9.152 -17.732  0.00  0.00    +0.180 C 
ATOM     21  C   UNL     1     -35.805  10.319 -16.966  0.00  0.00    +0.192 C 
ATOM     22  C   UNL     1     -37.289   9.952 -16.656  0.00  0.00    +0.260 C 
ATOM     23  O   UNL     1     -37.879   9.041 -17.580  0.00  0.00    -0.332 OA
BRANCH  18  24
ATOM     24  O   UNL     1     -38.195   8.483 -19.794  0.00  0.00    -0.365 OA
ATOM     25  H   UNL     1     -38.685   7.810 -19.251  0.00  0.00    +0.213 HD
ENDBRANCH  18  24
BRANCH  19  26
ATOM     26  O   UNL     1     -35.360   9.640 -20.095  0.00  0.00    -0.384 OA
ATOM     27  H   UNL     1     -35.558  10.594 -19.901  0.00  0.00    +0.210 HD
ENDBRANCH  19  26
BRANCH  20  28
ATOM     28  O   UNL     1     -33.810   9.427 -18.004  0.00  0.00    -0.386 OA
ATOM     29  H   UNL     1     -33.532   8.820 -18.739  0.00  0.00    +0.210 HD
ENDBRANCH  20  28
BRANCH  22  30
ATOM     30  C   UNL     1     -38.160  11.170 -16.502  0.00  0.00    +0.337 C 
ATOM     31  O   UNL     1     -39.366  11.040 -16.155  0.00  0.00    -0.248 OA
BRANCH  30  32
ATOM     32  O   UNL     1     -37.653  12.439 -16.763  0.00  0.00    -0.479 OA
ATOM     33  H   UNL     1     -37.902  13.229 -16.180  0.00  0.00    +0.295 HD
ENDBRANCH  30  32
ENDBRANCH  22  30
ENDBRANCH   1  21
TORSDOF 12
ENDMDL
