MODEL 6
REMARK VINA RESULT:    -6.777      1.480      5.912
REMARK INTER + INTRA:         -11.063
REMARK INTER:                  -9.726
REMARK INTRA:                  -1.337
REMARK UNBOUND:                -1.116
REMARK  Name = BEM
REMARK  12 active torsions:
REMARK  status: ('A' for Active; 'I' for Inactive)
REMARK    1  A    between atoms: C_1  and  O_20
REMARK    2  A    between atoms: C_2  and  O_3
REMARK    3  A    between atoms: C_4  and  O_5
REMARK    4  A    between atoms: C_6  and  O_7
REMARK    5  A    between atoms: C_8  and  C_10
REMARK    6  A    between atoms: C_10  and  O_11
REMARK    7  A    between atoms: C_13  and  O_14
REMARK    8  A    between atoms: C_15  and  O_16
REMARK    9  A    between atoms: C_17  and  O_18
REMARK   10  A    between atoms: C_19  and  O_20
REMARK   11  A    between atoms: C_21  and  C_23
REMARK   12  A    between atoms: C_23  and  O_25
REMARK                            x       y       z     vdW  Elec       q    Type
REMARK                         _______ _______ _______ _____ _____    ______ ____
ROOT
ATOM      1  O   UNL     1     -35.706  13.523 -15.902  0.00  0.00    -0.340 OA
ENDROOT
BRANCH   1   2
ATOM      2  C   UNL     1     -35.940  13.928 -17.244  0.00  0.00    +0.283 C 
ATOM      3  C   UNL     1     -36.837  15.187 -17.296  0.00  0.00    +0.201 C 
ATOM      4  C   UNL     1     -38.255  14.852 -16.802  0.00  0.00    +0.179 C 
ATOM      5  C   UNL     1     -38.800  13.621 -17.543  0.00  0.00    +0.185 C 
ATOM      6  C   UNL     1     -37.775  12.471 -17.454  0.00  0.00    +0.260 C 
ATOM      7  O   UNL     1     -36.519  12.864 -17.985  0.00  0.00    -0.332 OA
BRANCH   3   8
ATOM      8  O   UNL     1     -36.901  15.674 -18.613  0.00  0.00    -0.384 OA
ATOM      9  H   UNL     1     -37.221  14.926 -19.181  0.00  0.00    +0.210 HD
ENDBRANCH   3   8
BRANCH   4  10
ATOM     10  O   UNL     1     -39.113  15.944 -17.009  0.00  0.00    -0.386 OA
ATOM     11  H   UNL     1     -38.590  16.762 -16.796  0.00  0.00    +0.210 HD
ENDBRANCH   4  10
BRANCH   5  12
ATOM     12  O   UNL     1     -40.013  13.214 -16.961  0.00  0.00    -0.386 OA
ATOM     13  H   UNL     1     -40.724  13.373 -17.636  0.00  0.00    +0.210 HD
ENDBRANCH   5  12
BRANCH   6  14
ATOM     14  C   UNL     1     -38.270  11.283 -18.227  0.00  0.00    +0.337 C 
ATOM     15  O   UNL     1     -39.398  11.318 -18.789  0.00  0.00    -0.248 OA
BRANCH  14  16
ATOM     16  O   UNL     1     -37.495  10.129 -18.295  0.00  0.00    -0.479 OA
ATOM     17  H   UNL     1     -36.543  10.163 -18.638  0.00  0.00    +0.295 HD
ENDBRANCH  14  16
ENDBRANCH   6  14
ENDBRANCH   1   2
BRANCH   1  21
ATOM     18  C   UNL     1     -32.242  11.609 -14.748  0.00  0.00    +0.280 C 
ATOM     19  C   UNL     1     -32.407  13.028 -14.145  0.00  0.00    +0.201 C 
ATOM     20  C   UNL     1     -33.828  13.578 -14.399  0.00  0.00    +0.180 C 
ATOM     21  C   UNL     1     -34.393  13.015 -15.713  0.00  0.00    +0.192 C 
ATOM     22  C   UNL     1     -34.436  11.459 -15.609  0.00  0.00    +0.260 C 
ATOM     23  O   UNL     1     -33.469  10.898 -14.725  0.00  0.00    -0.332 OA
BRANCH  18  24
ATOM     24  O   UNL     1     -31.269  10.891 -14.036  0.00  0.00    -0.365 OA
ATOM     25  H   UNL     1     -31.361  11.143 -13.079  0.00  0.00    +0.213 HD
ENDBRANCH  18  24
BRANCH  19  26
ATOM     26  O   UNL     1     -31.448  13.889 -14.708  0.00  0.00    -0.384 OA
ATOM     27  H   UNL     1     -31.194  14.537 -14.000  0.00  0.00    +0.210 HD
ENDBRANCH  19  26
BRANCH  20  28
ATOM     28  O   UNL     1     -33.803  14.983 -14.436  0.00  0.00    -0.386 OA
ATOM     29  H   UNL     1     -32.964  15.246 -14.898  0.00  0.00    +0.210 HD
ENDBRANCH  20  28
BRANCH  22  30
ATOM     30  C   UNL     1     -34.355  10.793 -16.956  0.00  0.00    +0.337 C 
ATOM     31  O   UNL     1     -34.815   9.629 -17.110  0.00  0.00    -0.248 OA
BRANCH  30  32
ATOM     32  O   UNL     1     -33.753  11.441 -18.030  0.00  0.00    -0.479 OA
ATOM     33  H   UNL     1     -32.748  11.416 -18.155  0.00  0.00    +0.295 HD
ENDBRANCH  30  32
ENDBRANCH  22  30
ENDBRANCH   1  21
TORSDOF 12
ENDMDL
