MODEL 1
REMARK VINA RESULT:    -7.289      0.000      0.000
REMARK INTER + INTRA:         -11.815
REMARK INTER:                 -10.698
REMARK INTRA:                  -1.116
REMARK UNBOUND:                -1.116
REMARK  Name = BEM
REMARK  12 active torsions:
REMARK  status: ('A' for Active; 'I' for Inactive)
REMARK    1  A    between atoms: C_1  and  O_20
REMARK    2  A    between atoms: C_2  and  O_3
REMARK    3  A    between atoms: C_4  and  O_5
REMARK    4  A    between atoms: C_6  and  O_7
REMARK    5  A    between atoms: C_8  and  C_10
REMARK    6  A    between atoms: C_10  and  O_11
REMARK    7  A    between atoms: C_13  and  O_14
REMARK    8  A    between atoms: C_15  and  O_16
REMARK    9  A    between atoms: C_17  and  O_18
REMARK   10  A    between atoms: C_19  and  O_20
REMARK   11  A    between atoms: C_21  and  C_23
REMARK   12  A    between atoms: C_23  and  O_25
REMARK                            x       y       z     vdW  Elec       q    Type
REMARK                         _______ _______ _______ _____ _____    ______ ____
ROOT
ATOM      1  O   UNL     1     -34.657  12.596 -17.017  0.00  0.00    -0.340 OA
ENDROOT
BRANCH   1   2
ATOM      2  C   UNL     1     -35.092  12.718 -15.669  0.00  0.00    +0.283 C 
ATOM      3  C   UNL     1     -34.982  14.181 -15.179  0.00  0.00    +0.201 C 
ATOM      4  C   UNL     1     -33.505  14.602 -15.087  0.00  0.00    +0.179 C 
ATOM      5  C   UNL     1     -32.707  13.570 -14.274  0.00  0.00    +0.185 C 
ATOM      6  C   UNL     1     -32.962  12.159 -14.842  0.00  0.00    +0.260 C 
ATOM      7  O   UNL     1     -34.347  11.847 -14.833  0.00  0.00    -0.332 OA
BRANCH   3   8
ATOM      8  O   UNL     1     -35.587  14.309 -13.918  0.00  0.00    -0.384 OA
ATOM      9  H   UNL     1     -34.989  14.878 -13.368  0.00  0.00    +0.210 HD
ENDBRANCH   3   8
BRANCH   4  10
ATOM     10  O   UNL     1     -33.397  15.864 -14.482  0.00  0.00    -0.386 OA
ATOM     11  H   UNL     1     -32.802  16.409 -15.062  0.00  0.00    +0.210 HD
ENDBRANCH   4  10
BRANCH   5  12
ATOM     12  O   UNL     1     -31.335  13.865 -14.349  0.00  0.00    -0.386 OA
ATOM     13  H   UNL     1     -30.927  13.558 -13.496  0.00  0.00    +0.210 HD
ENDBRANCH   5  12
BRANCH   6  14
ATOM     14  C   UNL     1     -32.237  11.136 -14.017  0.00  0.00    +0.337 C 
ATOM     15  O   UNL     1     -32.779  10.652 -12.987  0.00  0.00    -0.248 OA
BRANCH  14  16
ATOM     16  O   UNL     1     -30.948  10.748 -14.371  0.00  0.00    -0.479 OA
ATOM     17  H   UNL     1     -30.504  11.120 -15.203  0.00  0.00    +0.295 HD
ENDBRANCH  14  16
ENDBRANCH   6  14
ENDBRANCH   1   2
BRANCH   1  21
ATOM     18  C   UNL     1     -37.485  10.029 -18.566  0.00  0.00    +0.280 C 
ATOM     19  C   UNL     1     -36.045   9.456 -18.574  0.00  0.00    +0.201 C 
ATOM     20  C   UNL     1     -35.088  10.345 -17.750  0.00  0.00    +0.180 C 
ATOM     21  C   UNL     1     -35.544  11.812 -17.802  0.00  0.00    +0.192 C 
ATOM     22  C   UNL     1     -36.989  11.904 -17.220  0.00  0.00    +0.260 C 
ATOM     23  O   UNL     1     -37.758  10.712 -17.354  0.00  0.00    -0.332 OA
BRANCH  18  24
ATOM     24  O   UNL     1     -38.418   8.995 -18.744  0.00  0.00    -0.365 OA
ATOM     25  H   UNL     1     -39.260   9.280 -18.302  0.00  0.00    +0.213 HD
ENDBRANCH  18  24
BRANCH  19  26
ATOM     26  O   UNL     1     -35.589   9.355 -19.901  0.00  0.00    -0.384 OA
ATOM     27  H   UNL     1     -35.878  10.183 -20.366  0.00  0.00    +0.210 HD
ENDBRANCH  19  26
BRANCH  20  28
ATOM     28  O   UNL     1     -33.774  10.222 -18.236  0.00  0.00    -0.386 OA
ATOM     29  H   UNL     1     -33.166  10.337 -17.460  0.00  0.00    +0.210 HD
ENDBRANCH  20  28
BRANCH  22  30
ATOM     30  C   UNL     1     -37.754  13.078 -17.770  0.00  0.00    +0.337 C 
ATOM     31  O   UNL     1     -38.993  12.977 -17.979  0.00  0.00    -0.248 OA
BRANCH  30  32
ATOM     32  O   UNL     1     -37.100  14.269 -18.072  0.00  0.00    -0.479 OA
ATOM     33  H   UNL     1     -36.331  14.599 -17.502  0.00  0.00    +0.295 HD
ENDBRANCH  30  32
ENDBRANCH  22  30
ENDBRANCH   1  21
TORSDOF 12
ENDMDL
