MODEL 11
REMARK VINA RESULT:    -6.412      1.246      1.753
REMARK INTER + INTRA:         -10.527
REMARK INTER:                  -9.824
REMARK INTRA:                  -0.703
REMARK UNBOUND:                -1.116
REMARK  Name = BEM
REMARK  12 active torsions:
REMARK  status: ('A' for Active; 'I' for Inactive)
REMARK    1  A    between atoms: C_1  and  O_20
REMARK    2  A    between atoms: C_2  and  O_3
REMARK    3  A    between atoms: C_4  and  O_5
REMARK    4  A    between atoms: C_6  and  O_7
REMARK    5  A    between atoms: C_8  and  C_10
REMARK    6  A    between atoms: C_10  and  O_11
REMARK    7  A    between atoms: C_13  and  O_14
REMARK    8  A    between atoms: C_15  and  O_16
REMARK    9  A    between atoms: C_17  and  O_18
REMARK   10  A    between atoms: C_19  and  O_20
REMARK   11  A    between atoms: C_21  and  C_23
REMARK   12  A    between atoms: C_23  and  O_25
REMARK                            x       y       z     vdW  Elec       q    Type
REMARK                         _______ _______ _______ _____ _____    ______ ____
ROOT
ATOM      1  O   UNL     1     -34.179  11.919 -16.566  0.00  0.00    -0.340 OA
ENDROOT
BRANCH   1   2
ATOM      2  C   UNL     1     -34.862  12.307 -15.381  0.00  0.00    +0.283 C 
ATOM      3  C   UNL     1     -34.093  13.424 -14.637  0.00  0.00    +0.201 C 
ATOM      4  C   UNL     1     -32.764  12.879 -14.085  0.00  0.00    +0.179 C 
ATOM      5  C   UNL     1     -33.009  11.594 -13.279  0.00  0.00    +0.185 C 
ATOM      6  C   UNL     1     -33.834  10.603 -14.127  0.00  0.00    +0.260 C 
ATOM      7  O   UNL     1     -35.063  11.183 -14.539  0.00  0.00    -0.332 OA
BRANCH   3   8
ATOM      8  O   UNL     1     -34.875  13.918 -13.578  0.00  0.00    -0.384 OA
ATOM      9  H   UNL     1     -34.536  14.827 -13.371  0.00  0.00    +0.210 HD
ENDBRANCH   3   8
BRANCH   4  10
ATOM     10  O   UNL     1     -32.148  13.839 -13.267  0.00  0.00    -0.386 OA
ATOM     11  H   UNL     1     -31.767  14.529 -13.872  0.00  0.00    +0.210 HD
ENDBRANCH   4  10
BRANCH   5  12
ATOM     12  O   UNL     1     -31.780  11.006 -12.935  0.00  0.00    -0.386 OA
ATOM     13  H   UNL     1     -31.379  11.571 -12.223  0.00  0.00    +0.210 HD
ENDBRANCH   5  12
BRANCH   6  14
ATOM     14  C   UNL     1     -34.133   9.369 -13.327  0.00  0.00    +0.337 C 
ATOM     15  O   UNL     1     -33.190   8.668 -12.867  0.00  0.00    -0.248 OA
BRANCH  14  16
ATOM     16  O   UNL     1     -35.452   8.979 -13.121  0.00  0.00    -0.479 OA
ATOM     17  H   UNL     1     -35.956   8.457 -13.829  0.00  0.00    +0.295 HD
ENDBRANCH  14  16
ENDBRANCH   6  14
ENDBRANCH   1   2
BRANCH   1  21
ATOM     18  C   UNL     1     -37.161  10.175 -18.814  0.00  0.00    +0.280 C 
ATOM     19  C   UNL     1     -35.872   9.320 -18.710  0.00  0.00    +0.201 C 
ATOM     20  C   UNL     1     -34.906   9.898 -17.652  0.00  0.00    +0.180 C 
ATOM     21  C   UNL     1     -35.063  11.425 -17.562  0.00  0.00    +0.192 C 
ATOM     22  C   UNL     1     -36.538  11.750 -17.169  0.00  0.00    +0.260 C 
ATOM     23  O   UNL     1     -37.487  10.764 -17.566  0.00  0.00    -0.332 OA
BRANCH  18  24
ATOM     24  O   UNL     1     -38.232   9.382 -19.254  0.00  0.00    -0.365 OA
ATOM     25  H   UNL     1     -39.043   9.690 -18.772  0.00  0.00    +0.213 HD
ENDBRANCH  18  24
BRANCH  19  26
ATOM     26  O   UNL     1     -35.240   9.272 -19.966  0.00  0.00    -0.384 OA
ATOM     27  H   UNL     1     -35.914   9.558 -20.636  0.00  0.00    +0.210 HD
ENDBRANCH  19  26
BRANCH  20  28
ATOM     28  O   UNL     1     -33.580   9.559 -17.971  0.00  0.00    -0.386 OA
ATOM     29  H   UNL     1     -33.521   9.516 -18.961  0.00  0.00    +0.210 HD
ENDBRANCH  20  28
BRANCH  22  30
ATOM     30  C   UNL     1     -36.972  13.109 -17.649  0.00  0.00    +0.337 C 
ATOM     31  O   UNL     1     -38.196  13.412 -17.654  0.00  0.00    -0.248 OA
BRANCH  30  32
ATOM     32  O   UNL     1     -36.034  14.028 -18.110  0.00  0.00    -0.479 OA
ATOM     33  H   UNL     1     -36.311  14.798 -18.707  0.00  0.00    +0.295 HD
ENDBRANCH  30  32
ENDBRANCH  22  30
ENDBRANCH   1  21
TORSDOF 12
ENDMDL
