MODEL 8
REMARK VINA RESULT:    -6.562      1.406      6.441
REMARK INTER + INTRA:         -10.748
REMARK INTER:                  -9.449
REMARK INTRA:                  -1.299
REMARK UNBOUND:                -1.116
REMARK  Name = BEM
REMARK  12 active torsions:
REMARK  status: ('A' for Active; 'I' for Inactive)
REMARK    1  A    between atoms: C_1  and  O_20
REMARK    2  A    between atoms: C_2  and  O_3
REMARK    3  A    between atoms: C_4  and  O_5
REMARK    4  A    between atoms: C_6  and  O_7
REMARK    5  A    between atoms: C_8  and  C_10
REMARK    6  A    between atoms: C_10  and  O_11
REMARK    7  A    between atoms: C_13  and  O_14
REMARK    8  A    between atoms: C_15  and  O_16
REMARK    9  A    between atoms: C_17  and  O_18
REMARK   10  A    between atoms: C_19  and  O_20
REMARK   11  A    between atoms: C_21  and  C_23
REMARK   12  A    between atoms: C_23  and  O_25
REMARK                            x       y       z     vdW  Elec       q    Type
REMARK                         _______ _______ _______ _____ _____    ______ ____
ROOT
ATOM      1  O   UNL     1     -36.312  11.696 -16.045  0.00  0.00    -0.340 OA
ENDROOT
BRANCH   1   2
ATOM      2  C   UNL     1     -36.826  12.180 -17.278  0.00  0.00    +0.283 C 
ATOM      3  C   UNL     1     -38.340  12.476 -17.172  0.00  0.00    +0.201 C 
ATOM      4  C   UNL     1     -39.126  11.167 -16.979  0.00  0.00    +0.179 C 
ATOM      5  C   UNL     1     -38.726  10.143 -18.053  0.00  0.00    +0.185 C 
ATOM      6  C   UNL     1     -37.190   9.999 -18.080  0.00  0.00    +0.260 C 
ATOM      7  O   UNL     1     -36.564  11.250 -18.318  0.00  0.00    -0.332 OA
BRANCH   3   8
ATOM      8  O   UNL     1     -38.783  13.124 -18.338  0.00  0.00    -0.384 OA
ATOM      9  H   UNL     1     -37.998  13.201 -18.939  0.00  0.00    +0.210 HD
ENDBRANCH   3   8
BRANCH   4  10
ATOM     10  O   UNL     1     -40.506  11.414 -17.054  0.00  0.00    -0.386 OA
ATOM     11  H   UNL     1     -40.815  11.597 -16.128  0.00  0.00    +0.210 HD
ENDBRANCH   4  10
BRANCH   5  12
ATOM     12  O   UNL     1     -39.309   8.897 -17.762  0.00  0.00    -0.386 OA
ATOM     13  H   UNL     1     -39.621   8.517 -18.625  0.00  0.00    +0.210 HD
ENDBRANCH   5  12
BRANCH   6  14
ATOM     14  C   UNL     1     -36.785   9.047 -19.167  0.00  0.00    +0.337 C 
ATOM     15  O   UNL     1     -37.327   7.912 -19.251  0.00  0.00    -0.248 OA
BRANCH  14  16
ATOM     16  O   UNL     1     -35.783   9.406 -20.063  0.00  0.00    -0.479 OA
ATOM     17  H   UNL     1     -35.618   8.862 -20.902  0.00  0.00    +0.295 HD
ENDBRANCH  14  16
ENDBRANCH   6  14
ENDBRANCH   1   2
BRANCH   1  21
ATOM     18  C   UNL     1     -32.927  13.189 -14.226  0.00  0.00    +0.280 C 
ATOM     19  C   UNL     1     -34.221  13.974 -13.888  0.00  0.00    +0.201 C 
ATOM     20  C   UNL     1     -35.475  13.218 -14.379  0.00  0.00    +0.180 C 
ATOM     21  C   UNL     1     -35.145  12.395 -15.634  0.00  0.00    +0.192 C 
ATOM     22  C   UNL     1     -34.016  11.378 -15.280  0.00  0.00    +0.260 C 
ATOM     23  O   UNL     1     -33.161  11.790 -14.217  0.00  0.00    -0.332 OA
BRANCH  18  24
ATOM     24  O   UNL     1     -31.916  13.503 -13.305  0.00  0.00    -0.365 OA
ATOM     25  H   UNL     1     -32.363  13.795 -12.467  0.00  0.00    +0.213 HD
ENDBRANCH  18  24
BRANCH  19  26
ATOM     26  O   UNL     1     -34.162  15.249 -14.479  0.00  0.00    -0.384 OA
ATOM     27  H   UNL     1     -35.048  15.672 -14.336  0.00  0.00    +0.210 HD
ENDBRANCH  19  26
BRANCH  20  28
ATOM     28  O   UNL     1     -36.514  14.127 -14.646  0.00  0.00    -0.386 OA
ATOM     29  H   UNL     1     -37.356  13.706 -14.331  0.00  0.00    +0.210 HD
ENDBRANCH  20  28
BRANCH  22  30
ATOM     30  C   UNL     1     -33.198  10.988 -16.482  0.00  0.00    +0.337 C 
ATOM     31  O   UNL     1     -32.061  10.465 -16.324  0.00  0.00    -0.248 OA
BRANCH  30  32
ATOM     32  O   UNL     1     -33.675  11.223 -17.768  0.00  0.00    -0.479 OA
ATOM     33  H   UNL     1     -34.098  12.110 -18.011  0.00  0.00    +0.295 HD
ENDBRANCH  30  32
ENDBRANCH  22  30
ENDBRANCH   1  21
TORSDOF 12
ENDMDL
