MODEL 16
REMARK VINA RESULT:    -6.073      4.629      7.023
REMARK INTER + INTRA:         -10.030
REMARK INTER:                  -8.943
REMARK INTRA:                  -1.087
REMARK UNBOUND:                -1.116
REMARK  Name = BEM
REMARK  12 active torsions:
REMARK  status: ('A' for Active; 'I' for Inactive)
REMARK    1  A    between atoms: C_1  and  O_20
REMARK    2  A    between atoms: C_2  and  O_3
REMARK    3  A    between atoms: C_4  and  O_5
REMARK    4  A    between atoms: C_6  and  O_7
REMARK    5  A    between atoms: C_8  and  C_10
REMARK    6  A    between atoms: C_10  and  O_11
REMARK    7  A    between atoms: C_13  and  O_14
REMARK    8  A    between atoms: C_15  and  O_16
REMARK    9  A    between atoms: C_17  and  O_18
REMARK   10  A    between atoms: C_19  and  O_20
REMARK   11  A    between atoms: C_21  and  C_23
REMARK   12  A    between atoms: C_23  and  O_25
REMARK                            x       y       z     vdW  Elec       q    Type
REMARK                         _______ _______ _______ _____ _____    ______ ____
ROOT
ATOM      1  O   UNL     1     -35.007   9.960 -11.008  0.00  0.00    -0.340 OA
ENDROOT
BRANCH   1   2
ATOM      2  C   UNL     1     -35.881   9.047 -11.658  0.00  0.00    +0.283 C 
ATOM      3  C   UNL     1     -37.220   8.919 -10.894  0.00  0.00    +0.201 C 
ATOM      4  C   UNL     1     -36.993   8.242  -9.531  0.00  0.00    +0.179 C 
ATOM      5  C   UNL     1     -36.206   6.934  -9.710  0.00  0.00    +0.185 C 
ATOM      6  C   UNL     1     -34.933   7.209 -10.537  0.00  0.00    +0.260 C 
ATOM      7  O   UNL     1     -35.254   7.780 -11.796  0.00  0.00    -0.332 OA
BRANCH   3   8
ATOM      8  O   UNL     1     -38.130   8.161 -11.650  0.00  0.00    -0.384 OA
ATOM      9  H   UNL     1     -38.624   8.798 -12.229  0.00  0.00    +0.210 HD
ENDBRANCH   3   8
BRANCH   4  10
ATOM     10  O   UNL     1     -38.224   7.971  -8.912  0.00  0.00    -0.386 OA
ATOM     11  H   UNL     1     -38.927   8.121  -9.597  0.00  0.00    +0.210 HD
ENDBRANCH   4  10
BRANCH   5  12
ATOM     12  O   UNL     1     -35.847   6.420  -8.452  0.00  0.00    -0.386 OA
ATOM     13  H   UNL     1     -34.973   5.961  -8.567  0.00  0.00    +0.210 HD
ENDBRANCH   5  12
BRANCH   6  14
ATOM     14  C   UNL     1     -34.188   5.927 -10.771  0.00  0.00    +0.337 C 
ATOM     15  O   UNL     1     -33.064   5.941 -11.343  0.00  0.00    -0.248 OA
BRANCH  14  16
ATOM     16  O   UNL     1     -34.756   4.716 -10.386  0.00  0.00    -0.479 OA
ATOM     17  H   UNL     1     -34.311   3.836 -10.619  0.00  0.00    +0.295 HD
ENDBRANCH  14  16
ENDBRANCH   6  14
ENDBRANCH   1   2
BRANCH   1  21
ATOM     18  C   UNL     1     -33.591  12.144 -14.204  0.00  0.00    +0.280 C 
ATOM     19  C   UNL     1     -32.873  10.784 -14.005  0.00  0.00    +0.201 C 
ATOM     20  C   UNL     1     -33.616   9.909 -12.971  0.00  0.00    +0.180 C 
ATOM     21  C   UNL     1     -34.316  10.794 -11.927  0.00  0.00    +0.192 C 
ATOM     22  C   UNL     1     -35.330  11.723 -12.663  0.00  0.00    +0.260 C 
ATOM     23  O   UNL     1     -34.991  12.016 -14.017  0.00  0.00    -0.332 OA
BRANCH  18  24
ATOM     24  O   UNL     1     -33.333  12.643 -15.491  0.00  0.00    -0.365 OA
ATOM     25  H   UNL     1     -32.366  12.865 -15.530  0.00  0.00    +0.213 HD
ENDBRANCH  18  24
BRANCH  19  26
ATOM     26  O   UNL     1     -31.550  11.011 -13.585  0.00  0.00    -0.384 OA
ATOM     27  H   UNL     1     -31.543  10.914 -12.597  0.00  0.00    +0.210 HD
ENDBRANCH  19  26
BRANCH  20  28
ATOM     28  O   UNL     1     -32.715   9.030 -12.346  0.00  0.00    -0.386 OA
ATOM     29  H   UNL     1     -32.921   8.118 -12.679  0.00  0.00    +0.210 HD
ENDBRANCH  20  28
BRANCH  22  30
ATOM     30  C   UNL     1     -35.591  12.999 -11.908  0.00  0.00    +0.337 C 
ATOM     31  O   UNL     1     -35.809  14.069 -12.539  0.00  0.00    -0.248 OA
BRANCH  30  32
ATOM     32  O   UNL     1     -35.569  13.013 -10.517  0.00  0.00    -0.479 OA
ATOM     33  H   UNL     1     -35.902  12.219  -9.984  0.00  0.00    +0.295 HD
ENDBRANCH  30  32
ENDBRANCH  22  30
ENDBRANCH   1  21
TORSDOF 12
ENDMDL
