MODEL 12
REMARK VINA RESULT:    -6.286      3.664      7.175
REMARK INTER + INTRA:         -10.342
REMARK INTER:                  -9.546
REMARK INTRA:                  -0.796
REMARK UNBOUND:                -1.116
REMARK  Name = BEM
REMARK  12 active torsions:
REMARK  status: ('A' for Active; 'I' for Inactive)
REMARK    1  A    between atoms: C_1  and  O_20
REMARK    2  A    between atoms: C_2  and  O_3
REMARK    3  A    between atoms: C_4  and  O_5
REMARK    4  A    between atoms: C_6  and  O_7
REMARK    5  A    between atoms: C_8  and  C_10
REMARK    6  A    between atoms: C_10  and  O_11
REMARK    7  A    between atoms: C_13  and  O_14
REMARK    8  A    between atoms: C_15  and  O_16
REMARK    9  A    between atoms: C_17  and  O_18
REMARK   10  A    between atoms: C_19  and  O_20
REMARK   11  A    between atoms: C_21  and  C_23
REMARK   12  A    between atoms: C_23  and  O_25
REMARK                            x       y       z     vdW  Elec       q    Type
REMARK                         _______ _______ _______ _____ _____    ______ ____
ROOT
ATOM      1  O   UNL     1     -34.829  10.039 -12.629  0.00  0.00    -0.340 OA
ENDROOT
BRANCH   1   2
ATOM      2  C   UNL     1     -33.640   9.903 -13.396  0.00  0.00    +0.283 C 
ATOM      3  C   UNL     1     -32.626  11.018 -13.052  0.00  0.00    +0.201 C 
ATOM      4  C   UNL     1     -33.160  12.385 -13.515  0.00  0.00    +0.179 C 
ATOM      5  C   UNL     1     -33.594  12.316 -14.988  0.00  0.00    +0.185 C 
ATOM      6  C   UNL     1     -34.553  11.124 -15.187  0.00  0.00    +0.260 C 
ATOM      7  O   UNL     1     -33.947   9.907 -14.782  0.00  0.00    -0.332 OA
BRANCH   3   8
ATOM      8  O   UNL     1     -31.397  10.756 -13.681  0.00  0.00    -0.384 OA
ATOM      9  H   UNL     1     -31.397   9.794 -13.923  0.00  0.00    +0.210 HD
ENDBRANCH   3   8
BRANCH   4  10
ATOM     10  O   UNL     1     -32.172  13.370 -13.360  0.00  0.00    -0.386 OA
ATOM     11  H   UNL     1     -32.646  14.240 -13.278  0.00  0.00    +0.210 HD
ENDBRANCH   4  10
BRANCH   5  12
ATOM     12  O   UNL     1     -34.245  13.508 -15.348  0.00  0.00    -0.386 OA
ATOM     13  H   UNL     1     -34.757  13.809 -14.552  0.00  0.00    +0.210 HD
ENDBRANCH   5  12
BRANCH   6  14
ATOM     14  C   UNL     1     -34.934  11.010 -16.634  0.00  0.00    +0.337 C 
ATOM     15  O   UNL     1     -35.991  10.407 -16.966  0.00  0.00    -0.248 OA
BRANCH  14  16
ATOM     16  O   UNL     1     -34.102  11.542 -17.613  0.00  0.00    -0.479 OA
ATOM     17  H   UNL     1     -33.098  11.578 -17.478  0.00  0.00    +0.295 HD
ENDBRANCH  14  16
ENDBRANCH   6  14
ENDBRANCH   1   2
BRANCH   1  21
ATOM     18  C   UNL     1     -34.906   9.183  -8.598  0.00  0.00    +0.280 C 
ATOM     19  C   UNL     1     -35.313  10.640  -8.939  0.00  0.00    +0.201 C 
ATOM     20  C   UNL     1     -35.518  10.819 -10.459  0.00  0.00    +0.180 C 
ATOM     21  C   UNL     1     -34.598   9.865 -11.239  0.00  0.00    +0.192 C 
ATOM     22  C   UNL     1     -34.937   8.399 -10.825  0.00  0.00    +0.260 C 
ATOM     23  O   UNL     1     -35.479   8.265  -9.513  0.00  0.00    -0.332 OA
BRANCH  18  24
ATOM     24  O   UNL     1     -35.311   8.862  -7.293  0.00  0.00    -0.365 OA
ATOM     25  H   UNL     1     -36.304   8.853  -7.288  0.00  0.00    +0.213 HD
ENDBRANCH  18  24
BRANCH  19  26
ATOM     26  O   UNL     1     -34.319  11.523  -8.478  0.00  0.00    -0.384 OA
ATOM     27  H   UNL     1     -34.463  11.632  -7.502  0.00  0.00    +0.210 HD
ENDBRANCH  19  26
BRANCH  20  28
ATOM     28  O   UNL     1     -35.268  12.152 -10.828  0.00  0.00    -0.386 OA
ATOM     29  H   UNL     1     -34.542  12.485 -10.238  0.00  0.00    +0.210 HD
ENDBRANCH  20  28
BRANCH  22  30
ATOM     30  C   UNL     1     -33.767   7.469 -11.000  0.00  0.00    +0.337 C 
ATOM     31  O   UNL     1     -33.718   6.702 -11.999  0.00  0.00    -0.248 OA
BRANCH  30  32
ATOM     32  O   UNL     1     -32.748   7.431 -10.053  0.00  0.00    -0.479 OA
ATOM     33  H   UNL     1     -31.876   7.922 -10.208  0.00  0.00    +0.295 HD
ENDBRANCH  30  32
ENDBRANCH  22  30
ENDBRANCH   1  21
TORSDOF 12
ENDMDL
