MODEL 15
REMARK VINA RESULT:    -6.083      4.213      6.248
REMARK INTER + INTRA:         -10.045
REMARK INTER:                  -8.959
REMARK INTRA:                  -1.086
REMARK UNBOUND:                -1.116
REMARK  Name = BEM
REMARK  12 active torsions:
REMARK  status: ('A' for Active; 'I' for Inactive)
REMARK    1  A    between atoms: C_1  and  O_20
REMARK    2  A    between atoms: C_2  and  O_3
REMARK    3  A    between atoms: C_4  and  O_5
REMARK    4  A    between atoms: C_6  and  O_7
REMARK    5  A    between atoms: C_8  and  C_10
REMARK    6  A    between atoms: C_10  and  O_11
REMARK    7  A    between atoms: C_13  and  O_14
REMARK    8  A    between atoms: C_15  and  O_16
REMARK    9  A    between atoms: C_17  and  O_18
REMARK   10  A    between atoms: C_19  and  O_20
REMARK   11  A    between atoms: C_21  and  C_23
REMARK   12  A    between atoms: C_23  and  O_25
REMARK                            x       y       z     vdW  Elec       q    Type
REMARK                         _______ _______ _______ _____ _____    ______ ____
ROOT
ATOM      1  O   UNL     1     -35.461   9.550 -12.924  0.00  0.00    -0.340 OA
ENDROOT
BRANCH   1   2
ATOM      2  C   UNL     1     -34.716  10.663 -12.447  0.00  0.00    +0.283 C 
ATOM      3  C   UNL     1     -35.509  11.980 -12.623  0.00  0.00    +0.201 C 
ATOM      4  C   UNL     1     -35.671  12.308 -14.117  0.00  0.00    +0.179 C 
ATOM      5  C   UNL     1     -34.308  12.259 -14.824  0.00  0.00    +0.185 C 
ATOM      6  C   UNL     1     -33.613  10.917 -14.509  0.00  0.00    +0.260 C 
ATOM      7  O   UNL     1     -33.463  10.736 -13.110  0.00  0.00    -0.332 OA
BRANCH   3   8
ATOM      8  O   UNL     1     -34.836  13.032 -11.980  0.00  0.00    -0.384 OA
ATOM      9  H   UNL     1     -34.482  12.668 -11.127  0.00  0.00    +0.210 HD
ENDBRANCH   3   8
BRANCH   4  10
ATOM     10  O   UNL     1     -36.238  13.583 -14.275  0.00  0.00    -0.386 OA
ATOM     11  H   UNL     1     -35.939  13.922 -15.160  0.00  0.00    +0.210 HD
ENDBRANCH   4  10
BRANCH   5  12
ATOM     12  O   UNL     1     -34.487  12.379 -16.213  0.00  0.00    -0.386 OA
ATOM     13  H   UNL     1     -34.173  13.286 -16.467  0.00  0.00    +0.210 HD
ENDBRANCH   5  12
BRANCH   6  14
ATOM     14  C   UNL     1     -32.254  10.883 -15.144  0.00  0.00    +0.337 C 
ATOM     15  O   UNL     1     -32.141  10.828 -16.399  0.00  0.00    -0.248 OA
BRANCH  14  16
ATOM     16  O   UNL     1     -31.116  10.878 -14.344  0.00  0.00    -0.479 OA
ATOM     17  H   UNL     1     -30.220  10.585 -14.717  0.00  0.00    +0.295 HD
ENDBRANCH  14  16
ENDBRANCH   6  14
ENDBRANCH   1   2
BRANCH   1  21
ATOM     18  C   UNL     1     -35.706   7.212  -9.538  0.00  0.00    +0.280 C 
ATOM     19  C   UNL     1     -34.338   7.126 -10.264  0.00  0.00    +0.201 C 
ATOM     20  C   UNL     1     -34.220   8.212 -11.357  0.00  0.00    +0.180 C 
ATOM     21  C   UNL     1     -35.604   8.535 -11.941  0.00  0.00    +0.192 C 
ATOM     22  C   UNL     1     -36.524   9.042 -10.787  0.00  0.00    +0.260 C 
ATOM     23  O   UNL     1     -36.179   8.548  -9.495  0.00  0.00    -0.332 OA
BRANCH  18  24
ATOM     24  O   UNL     1     -35.592   6.710  -8.232  0.00  0.00    -0.365 OA
ATOM     25  H   UNL     1     -35.297   7.461  -7.654  0.00  0.00    +0.213 HD
ENDBRANCH  18  24
BRANCH  19  26
ATOM     26  O   UNL     1     -34.190   5.849 -10.833  0.00  0.00    -0.384 OA
ATOM     27  H   UNL     1     -34.002   5.223 -10.085  0.00  0.00    +0.210 HD
ENDBRANCH  19  26
BRANCH  20  28
ATOM     28  O   UNL     1     -33.346   7.782 -12.371  0.00  0.00    -0.386 OA
ATOM     29  H   UNL     1     -33.107   6.840 -12.169  0.00  0.00    +0.210 HD
ENDBRANCH  20  28
BRANCH  22  30
ATOM     30  C   UNL     1     -37.982   8.791 -11.065  0.00  0.00    +0.337 C 
ATOM     31  O   UNL     1     -38.847   9.097 -10.200  0.00  0.00    -0.248 OA
BRANCH  30  32
ATOM     32  O   UNL     1     -38.382   8.200 -12.259  0.00  0.00    -0.479 OA
ATOM     33  H   UNL     1     -39.364   8.095 -12.484  0.00  0.00    +0.295 HD
ENDBRANCH  30  32
ENDBRANCH  22  30
ENDBRANCH   1  21
TORSDOF 12
ENDMDL
