MODEL 4
REMARK VINA RESULT:    -6.961      1.231      6.365
REMARK INTER + INTRA:         -11.333
REMARK INTER:                 -10.738
REMARK INTRA:                  -0.595
REMARK UNBOUND:                -1.116
REMARK  Name = BEM
REMARK  12 active torsions:
REMARK  status: ('A' for Active; 'I' for Inactive)
REMARK    1  A    between atoms: C_1  and  O_20
REMARK    2  A    between atoms: C_2  and  O_3
REMARK    3  A    between atoms: C_4  and  O_5
REMARK    4  A    between atoms: C_6  and  O_7
REMARK    5  A    between atoms: C_8  and  C_10
REMARK    6  A    between atoms: C_10  and  O_11
REMARK    7  A    between atoms: C_13  and  O_14
REMARK    8  A    between atoms: C_15  and  O_16
REMARK    9  A    between atoms: C_17  and  O_18
REMARK   10  A    between atoms: C_19  and  O_20
REMARK   11  A    between atoms: C_21  and  C_23
REMARK   12  A    between atoms: C_23  and  O_25
REMARK                            x       y       z     vdW  Elec       q    Type
REMARK                         _______ _______ _______ _____ _____    ______ ____
ROOT
ATOM      1  O   UNL     1     -35.283  12.347 -15.796  0.00  0.00    -0.340 OA
ENDROOT
BRANCH   1   2
ATOM      2  C   UNL     1     -35.857  12.722 -17.041  0.00  0.00    +0.283 C 
ATOM      3  C   UNL     1     -37.402  12.682 -16.976  0.00  0.00    +0.201 C 
ATOM      4  C   UNL     1     -37.890  11.232 -16.813  0.00  0.00    +0.179 C 
ATOM      5  C   UNL     1     -37.250  10.331 -17.880  0.00  0.00    +0.185 C 
ATOM      6  C   UNL     1     -35.719  10.523 -17.865  0.00  0.00    +0.260 C 
ATOM      7  O   UNL     1     -35.372  11.882 -18.078  0.00  0.00    -0.332 OA
BRANCH   3   8
ATOM      8  O   UNL     1     -37.943  13.232 -18.150  0.00  0.00    -0.384 OA
ATOM      9  H   UNL     1     -37.330  13.957 -18.438  0.00  0.00    +0.210 HD
ENDBRANCH   3   8
BRANCH   4  10
ATOM     10  O   UNL     1     -39.289  11.175 -16.925  0.00  0.00    -0.386 OA
ATOM     11  H   UNL     1     -39.643  12.006 -16.510  0.00  0.00    +0.210 HD
ENDBRANCH   4  10
BRANCH   5  12
ATOM     12  O   UNL     1     -37.557   8.986 -17.613  0.00  0.00    -0.386 OA
ATOM     13  H   UNL     1     -37.825   8.574 -18.476  0.00  0.00    +0.210 HD
ENDBRANCH   5  12
BRANCH   6  14
ATOM     14  C   UNL     1     -35.089   9.693 -18.945  0.00  0.00    +0.337 C 
ATOM     15  O   UNL     1     -33.893   9.307 -18.832  0.00  0.00    -0.248 OA
BRANCH  14  16
ATOM     16  O   UNL     1     -35.814   9.380 -20.090  0.00  0.00    -0.479 OA
ATOM     17  H   UNL     1     -36.801   9.601 -20.156  0.00  0.00    +0.295 HD
ENDBRANCH  14  16
ENDBRANCH   6  14
ENDBRANCH   1   2
BRANCH   1  21
ATOM     18  C   UNL     1     -32.013  14.266 -14.180  0.00  0.00    +0.280 C 
ATOM     19  C   UNL     1     -33.201  15.210 -14.500  0.00  0.00    +0.201 C 
ATOM     20  C   UNL     1     -34.472  14.405 -14.849  0.00  0.00    +0.180 C 
ATOM     21  C   UNL     1     -34.094  13.069 -15.510  0.00  0.00    +0.192 C 
ATOM     22  C   UNL     1     -33.207  12.257 -14.516  0.00  0.00    +0.260 C 
ATOM     23  O   UNL     1     -32.465  13.055 -13.598  0.00  0.00    -0.332 OA
BRANCH  18  24
ATOM     24  O   UNL     1     -31.114  14.900 -13.308  0.00  0.00    -0.365 OA
ATOM     25  H   UNL     1     -31.643  15.252 -12.545  0.00  0.00    +0.213 HD
ENDBRANCH  18  24
BRANCH  19  26
ATOM     26  O   UNL     1     -32.853  16.053 -15.570  0.00  0.00    -0.384 OA
ATOM     27  H   UNL     1     -33.660  16.139 -16.141  0.00  0.00    +0.210 HD
ENDBRANCH  19  26
BRANCH  20  28
ATOM     28  O   UNL     1     -35.302  15.157 -15.700  0.00  0.00    -0.386 OA
ATOM     29  H   UNL     1     -35.884  15.714 -15.119  0.00  0.00    +0.210 HD
ENDBRANCH  20  28
BRANCH  22  30
ATOM     30  C   UNL     1     -32.291  11.293 -15.222  0.00  0.00    +0.337 C 
ATOM     31  O   UNL     1     -32.526  10.966 -16.418  0.00  0.00    -0.248 OA
BRANCH  30  32
ATOM     32  O   UNL     1     -31.201  10.740 -14.559  0.00  0.00    -0.479 OA
ATOM     33  H   UNL     1     -31.156   9.746 -14.371  0.00  0.00    +0.295 HD
ENDBRANCH  30  32
ENDBRANCH  22  30
ENDBRANCH   1  21
TORSDOF 12
ENDMDL
