REMARK  Name = ALL
REMARK  6 active torsions:
REMARK  status: ('A' for Active; 'I' for Inactive)
REMARK    1  A    between atoms: C_1  and  O_7
REMARK    2  A    between atoms: C_2  and  O_8
REMARK    3  A    between atoms: C_3  and  O_9
REMARK    4  A    between atoms: C_4  and  O_10
REMARK    5  A    between atoms: C_5  and  C_6
REMARK    6  A    between atoms: C_6  and  O_12
REMARK                            x       y       z     vdW  Elec       q    Type
REMARK                         _______ _______ _______ _____ _____    ______ ____
ROOT
ATOM      1  C   UNL     1       0.829  -1.032  -1.186  0.00  0.00    +0.279 C 
ATOM      2  C   UNL     1       1.803   0.004  -0.590  0.00  0.00    +0.201 C 
ATOM      3  C   UNL     1       1.268   0.555   0.748  0.00  0.00    +0.179 C 
ATOM      4  C   UNL     1      -0.225   0.941   0.637  0.00  0.00    +0.177 C 
ATOM      5  C   UNL     1      -1.034  -0.173  -0.075  0.00  0.00    +0.178 C 
ATOM      6  O   UNL     1      -0.458  -0.461  -1.339  0.00  0.00    -0.341 OA
ENDROOT
BRANCH   1   7
ATOM      7  O   UNL     1       1.300  -1.421  -2.448  0.00  0.00    -0.365 OA
ATOM      8  H   UNL     1       0.706  -2.154  -2.756  0.00  0.00    +0.213 HD
ENDBRANCH   1   7
BRANCH   2   9
ATOM      9  O   UNL     1       3.068  -0.572  -0.388  0.00  0.00    -0.384 OA
ATOM     10  H   UNL     1       3.527  -0.579  -1.268  0.00  0.00    +0.210 HD
ENDBRANCH   2   9
BRANCH   3  11
ATOM     11  O   UNL     1       1.498  -0.340   1.811  0.00  0.00    -0.386 OA
ATOM     12  H   UNL     1       0.984  -1.169   1.639  0.00  0.00    +0.210 HD
ENDBRANCH   3  11
BRANCH   4  13
ATOM     13  O   UNL     1      -0.754   1.182   1.916  0.00  0.00    -0.386 OA
ATOM     14  H   UNL     1      -0.391   2.057   2.215  0.00  0.00    +0.210 HD
ENDBRANCH   4  13
BRANCH   5  15
ATOM     15  C   UNL     1      -2.489   0.257  -0.309  0.00  0.00    +0.190 C 
BRANCH  15  16
ATOM     16  O   UNL     1      -3.176   0.348   0.909  0.00  0.00    -0.392 OA
ATOM     17  H   UNL     1      -4.097   0.641   0.684  0.00  0.00    +0.210 HD
ENDBRANCH  15  16
ENDBRANCH   5  15
TORSDOF 6
