MODEL 7
REMARK VINA RESULT:    -3.511     14.085     14.718
REMARK INTER + INTRA:          -3.914
REMARK INTER:                  -4.101
REMARK INTRA:                   0.187
REMARK UNBOUND:                 0.111
REMARK  Name = BET
REMARK  6 active torsions:
REMARK  status: ('A' for Active; 'I' for Inactive)
REMARK    1  A    between atoms: N_1  and  C_2
REMARK    2  A    between atoms: N_1  and  C_6
REMARK    3  A    between atoms: N_1  and  C_7
REMARK    4  A    between atoms: N_1  and  C_8
REMARK    5  A    between atoms: C_2  and  C_3
REMARK    6  A    between atoms: C_3  and  O_5
REMARK                            x       y       z     vdW  Elec       q    Type
REMARK                         _______ _______ _______ _____ _____    ______ ____
ROOT
ATOM      1  C   UNL     1      77.664  11.322  71.476  0.00  0.00    +0.046 C 
ENDROOT
BRANCH   1   2
ATOM      2  N   UNL     1      77.433  11.829  72.861  0.00  0.00    +0.381 N 
ATOM      3  C   UNL     1      77.047  10.725  73.773  0.00  0.00    -0.092 C 
ATOM      4  C   UNL     1      78.642  12.508  73.386  0.00  0.00    -0.092 C 
ATOM      5  C   UNL     1      76.323  12.812  72.817  0.00  0.00    -0.092 C 
ENDBRANCH   1   2
BRANCH   1   6
ATOM      6  C   UNL     1      78.446  10.035  71.419  0.00  0.00    +0.288 C 
ATOM      7  O   UNL     1      79.637   9.999  71.830  0.00  0.00    -0.253 OA
BRANCH   6   8
ATOM      8  O   UNL     1      77.853   8.885  70.907  0.00  0.00    -0.482 OA
ATOM      9  H   UNL     1      77.467   8.181  71.525  0.00  0.00    +0.295 HD
ENDBRANCH   6   8
ENDBRANCH   1   6
TORSDOF 3
ENDMDL
