MODEL 8
REMARK VINA RESULT:    -3.471      1.938      3.049
REMARK INTER + INTRA:          -3.868
REMARK INTER:                  -3.982
REMARK INTRA:                   0.114
REMARK UNBOUND:                 0.111
REMARK  Name = BET
REMARK  6 active torsions:
REMARK  status: ('A' for Active; 'I' for Inactive)
REMARK    1  A    between atoms: N_1  and  C_2
REMARK    2  A    between atoms: N_1  and  C_6
REMARK    3  A    between atoms: N_1  and  C_7
REMARK    4  A    between atoms: N_1  and  C_8
REMARK    5  A    between atoms: C_2  and  C_3
REMARK    6  A    between atoms: C_3  and  O_5
REMARK                            x       y       z     vdW  Elec       q    Type
REMARK                         _______ _______ _______ _____ _____    ______ ____
ROOT
ATOM      1  C   UNL     1      74.554  21.406  61.284  0.00  0.00    +0.046 C 
ENDROOT
BRANCH   1   2
ATOM      2  N   UNL     1      75.271  20.636  62.343  0.00  0.00    +0.381 N 
ATOM      3  C   UNL     1      74.940  21.154  63.692  0.00  0.00    -0.092 C 
ATOM      4  C   UNL     1      74.937  19.193  62.268  0.00  0.00    -0.092 C 
ATOM      5  C   UNL     1      76.730  20.792  62.124  0.00  0.00    -0.092 C 
ENDBRANCH   1   2
BRANCH   1   6
ATOM      6  C   UNL     1      73.112  21.004  61.106  0.00  0.00    +0.288 C 
ATOM      7  O   UNL     1      72.234  21.425  61.906  0.00  0.00    -0.253 OA
BRANCH   6   8
ATOM      8  O   UNL     1      72.750  20.162  60.059  0.00  0.00    -0.482 OA
ATOM      9  H   UNL     1      71.876  20.296  59.564  0.00  0.00    +0.295 HD
ENDBRANCH   6   8
ENDBRANCH   1   6
TORSDOF 3
ENDMDL
