MODEL 3
REMARK VINA RESULT:    -4.388      0.955      1.868
REMARK INTER + INTRA:          -4.919
REMARK INTER:                  -5.135
REMARK INTRA:                   0.216
REMARK UNBOUND:                 0.111
REMARK  Name = BET
REMARK  6 active torsions:
REMARK  status: ('A' for Active; 'I' for Inactive)
REMARK    1  A    between atoms: N_1  and  C_2
REMARK    2  A    between atoms: N_1  and  C_6
REMARK    3  A    between atoms: N_1  and  C_7
REMARK    4  A    between atoms: N_1  and  C_8
REMARK    5  A    between atoms: C_2  and  C_3
REMARK    6  A    between atoms: C_3  and  O_5
REMARK                            x       y       z     vdW  Elec       q    Type
REMARK                         _______ _______ _______ _____ _____    ______ ____
ROOT
ATOM      1  C   UNL     1      74.123  20.814  62.683  0.00  0.00    +0.046 C 
ENDROOT
BRANCH   1   2
ATOM      2  N   UNL     1      74.800  20.653  61.363  0.00  0.00    +0.381 N 
ATOM      3  C   UNL     1      75.128  19.230  61.105  0.00  0.00    -0.092 C 
ATOM      4  C   UNL     1      73.952  21.174  60.264  0.00  0.00    -0.092 C 
ATOM      5  C   UNL     1      76.064  21.429  61.391  0.00  0.00    -0.092 C 
ENDBRANCH   1   2
BRANCH   1   6
ATOM      6  C   UNL     1      75.044  20.655  63.866  0.00  0.00    +0.288 C 
ATOM      7  O   UNL     1      75.433  21.669  64.507  0.00  0.00    -0.253 OA
BRANCH   6   8
ATOM      8  O   UNL     1      75.471  19.387  64.249  0.00  0.00    -0.482 OA
ATOM      9  H   UNL     1      75.004  18.556  63.904  0.00  0.00    +0.295 HD
ENDBRANCH   6   8
ENDBRANCH   1   6
TORSDOF 3
ENDMDL
