MODEL 10
REMARK VINA RESULT:    -3.380      2.827      3.298
REMARK INTER + INTRA:          -3.764
REMARK INTER:                  -3.903
REMARK INTRA:                   0.139
REMARK UNBOUND:                 0.111
REMARK  Name = BET
REMARK  6 active torsions:
REMARK  status: ('A' for Active; 'I' for Inactive)
REMARK    1  A    between atoms: N_1  and  C_2
REMARK    2  A    between atoms: N_1  and  C_6
REMARK    3  A    between atoms: N_1  and  C_7
REMARK    4  A    between atoms: N_1  and  C_8
REMARK    5  A    between atoms: C_2  and  C_3
REMARK    6  A    between atoms: C_3  and  O_5
REMARK                            x       y       z     vdW  Elec       q    Type
REMARK                         _______ _______ _______ _____ _____    ______ ____
ROOT
ATOM      1  C   UNL     1      72.943  20.914  61.463  0.00  0.00    +0.046 C 
ENDROOT
BRANCH   1   2
ATOM      2  N   UNL     1      74.259  20.570  60.849  0.00  0.00    +0.381 N 
ATOM      3  C   UNL     1      74.077  19.946  59.516  0.00  0.00    -0.092 C 
ATOM      4  C   UNL     1      75.117  21.772  60.722  0.00  0.00    -0.092 C 
ATOM      5  C   UNL     1      74.943  19.595  61.734  0.00  0.00    -0.092 C 
ENDBRANCH   1   2
BRANCH   1   6
ATOM      6  C   UNL     1      71.865  21.233  60.458  0.00  0.00    +0.288 C 
ATOM      7  O   UNL     1      71.716  22.413  60.041  0.00  0.00    -0.253 OA
BRANCH   6   8
ATOM      8  O   UNL     1      71.028  20.223  59.993  0.00  0.00    -0.482 OA
ATOM      9  H   UNL     1      70.525  19.626  60.640  0.00  0.00    +0.295 HD
ENDBRANCH   6   8
ENDBRANCH   1   6
TORSDOF 3
ENDMDL
