MODEL 20
REMARK VINA RESULT:    -3.123     13.054     14.057
REMARK INTER + INTRA:          -3.469
REMARK INTER:                  -3.611
REMARK INTRA:                   0.143
REMARK UNBOUND:                 0.111
REMARK  Name = BET
REMARK  6 active torsions:
REMARK  status: ('A' for Active; 'I' for Inactive)
REMARK    1  A    between atoms: N_1  and  C_2
REMARK    2  A    between atoms: N_1  and  C_6
REMARK    3  A    between atoms: N_1  and  C_7
REMARK    4  A    between atoms: N_1  and  C_8
REMARK    5  A    between atoms: C_2  and  C_3
REMARK    6  A    between atoms: C_3  and  O_5
REMARK                            x       y       z     vdW  Elec       q    Type
REMARK                         _______ _______ _______ _____ _____    ______ ____
ROOT
ATOM      1  C   UNL     1      76.379  12.852  72.699  0.00  0.00    +0.046 C 
ENDROOT
BRANCH   1   2
ATOM      2  N   UNL     1      76.032  12.689  74.141  0.00  0.00    +0.381 N 
ATOM      3  C   UNL     1      76.567  13.812  74.947  0.00  0.00    -0.092 C 
ATOM      4  C   UNL     1      74.564  12.598  74.327  0.00  0.00    -0.092 C 
ATOM      5  C   UNL     1      76.646  11.429  74.627  0.00  0.00    -0.092 C 
ENDBRANCH   1   2
BRANCH   1   6
ATOM      6  C   UNL     1      77.657  13.615  72.460  0.00  0.00    +0.288 C 
ATOM      7  O   UNL     1      78.772  13.046  72.612  0.00  0.00    -0.253 OA
BRANCH   6   8
ATOM      8  O   UNL     1      77.607  14.951  72.076  0.00  0.00    -0.482 OA
ATOM      9  H   UNL     1      78.277  15.327  71.415  0.00  0.00    +0.295 HD
ENDBRANCH   6   8
ENDBRANCH   1   6
TORSDOF 3
ENDMDL
