MODEL 14
REMARK VINA RESULT:    -3.275     19.313     20.177
REMARK INTER + INTRA:          -3.643
REMARK INTER:                  -3.889
REMARK INTRA:                   0.246
REMARK UNBOUND:                 0.111
REMARK  Name = BET
REMARK  6 active torsions:
REMARK  status: ('A' for Active; 'I' for Inactive)
REMARK    1  A    between atoms: N_1  and  C_2
REMARK    2  A    between atoms: N_1  and  C_6
REMARK    3  A    between atoms: N_1  and  C_7
REMARK    4  A    between atoms: N_1  and  C_8
REMARK    5  A    between atoms: C_2  and  C_3
REMARK    6  A    between atoms: C_3  and  O_5
REMARK                            x       y       z     vdW  Elec       q    Type
REMARK                         _______ _______ _______ _____ _____    ______ ____
ROOT
ATOM      1  C   UNL     1      83.449   8.133  73.915  0.00  0.00    +0.046 C 
ENDROOT
BRANCH   1   2
ATOM      2  N   UNL     1      84.016   7.791  75.252  0.00  0.00    +0.381 N 
ATOM      3  C   UNL     1      83.047   7.007  76.055  0.00  0.00    -0.092 C 
ATOM      4  C   UNL     1      85.280   7.028  75.115  0.00  0.00    -0.092 C 
ATOM      5  C   UNL     1      84.306   9.056  75.971  0.00  0.00    -0.092 C 
ENDBRANCH   1   2
BRANCH   1   6
ATOM      6  C   UNL     1      84.482   8.564  72.905  0.00  0.00    +0.288 C 
ATOM      7  O   UNL     1      85.129   9.633  73.077  0.00  0.00    -0.253 OA
BRANCH   6   8
ATOM      8  O   UNL     1      84.721   7.782  71.779  0.00  0.00    -0.482 OA
ATOM      9  H   UNL     1      84.052   7.750  71.018  0.00  0.00    +0.295 HD
ENDBRANCH   6   8
ENDBRANCH   1   6
TORSDOF 3
ENDMDL
