MODEL 1
REMARK VINA RESULT:    -4.460      0.000      0.000
REMARK INTER + INTRA:          -5.001
REMARK INTER:                  -5.112
REMARK INTRA:                   0.111
REMARK UNBOUND:                 0.111
REMARK  Name = BET
REMARK  6 active torsions:
REMARK  status: ('A' for Active; 'I' for Inactive)
REMARK    1  A    between atoms: N_1  and  C_2
REMARK    2  A    between atoms: N_1  and  C_6
REMARK    3  A    between atoms: N_1  and  C_7
REMARK    4  A    between atoms: N_1  and  C_8
REMARK    5  A    between atoms: C_2  and  C_3
REMARK    6  A    between atoms: C_3  and  O_5
REMARK                            x       y       z     vdW  Elec       q    Type
REMARK                         _______ _______ _______ _____ _____    ______ ____
ROOT
ATOM      1  C   UNL     1      74.659  20.026  62.752  0.00  0.00    +0.046 C 
ENDROOT
BRANCH   1   2
ATOM      2  N   UNL     1      74.807  20.445  61.327  0.00  0.00    +0.381 N 
ATOM      3  C   UNL     1      73.498  20.834  60.750  0.00  0.00    -0.092 C 
ATOM      4  C   UNL     1      75.762  21.572  61.201  0.00  0.00    -0.092 C 
ATOM      5  C   UNL     1      75.336  19.292  60.557  0.00  0.00    -0.092 C 
ENDBRANCH   1   2
BRANCH   1   6
ATOM      6  C   UNL     1      74.568  21.178  63.721  0.00  0.00    +0.288 C 
ATOM      7  O   UNL     1      75.552  21.467  64.455  0.00  0.00    -0.253 OA
BRANCH   6   8
ATOM      8  O   UNL     1      73.395  21.921  63.809  0.00  0.00    -0.482 OA
ATOM      9  H   UNL     1      72.582  21.674  63.257  0.00  0.00    +0.295 HD
ENDBRANCH   6   8
ENDBRANCH   1   6
TORSDOF 3
ENDMDL
