MODEL 11
REMARK VINA RESULT:    -3.375     14.276     15.192
REMARK INTER + INTRA:          -3.757
REMARK INTER:                  -3.890
REMARK INTRA:                   0.133
REMARK UNBOUND:                 0.111
REMARK  Name = BET
REMARK  6 active torsions:
REMARK  status: ('A' for Active; 'I' for Inactive)
REMARK    1  A    between atoms: N_1  and  C_2
REMARK    2  A    between atoms: N_1  and  C_6
REMARK    3  A    between atoms: N_1  and  C_7
REMARK    4  A    between atoms: N_1  and  C_8
REMARK    5  A    between atoms: C_2  and  C_3
REMARK    6  A    between atoms: C_3  and  O_5
REMARK                            x       y       z     vdW  Elec       q    Type
REMARK                         _______ _______ _______ _____ _____    ______ ____
ROOT
ATOM      1  C   UNL     1      78.504  10.356  73.378  0.00  0.00    +0.046 C 
ENDROOT
BRANCH   1   2
ATOM      2  N   UNL     1      77.527  11.480  73.473  0.00  0.00    +0.381 N 
ATOM      3  C   UNL     1      77.696  12.427  72.345  0.00  0.00    -0.092 C 
ATOM      4  C   UNL     1      76.134  10.972  73.491  0.00  0.00    -0.092 C 
ATOM      5  C   UNL     1      77.778  12.209  74.740  0.00  0.00    -0.092 C 
ENDBRANCH   1   2
BRANCH   1   6
ATOM      6  C   UNL     1      78.741   9.868  71.972  0.00  0.00    +0.288 C 
ATOM      7  O   UNL     1      79.874  10.007  71.436  0.00  0.00    -0.253 OA
BRANCH   6   8
ATOM      8  O   UNL     1      77.706   9.268  71.261  0.00  0.00    -0.482 OA
ATOM      9  H   UNL     1      76.761   9.262  71.626  0.00  0.00    +0.295 HD
ENDBRANCH   6   8
ENDBRANCH   1   6
TORSDOF 3
ENDMDL
