MODEL 2
REMARK VINA RESULT:    -4.418      1.038      2.042
REMARK INTER + INTRA:          -4.954
REMARK INTER:                  -5.046
REMARK INTRA:                   0.092
REMARK UNBOUND:                 0.111
REMARK  Name = BET
REMARK  6 active torsions:
REMARK  status: ('A' for Active; 'I' for Inactive)
REMARK    1  A    between atoms: N_1  and  C_2
REMARK    2  A    between atoms: N_1  and  C_6
REMARK    3  A    between atoms: N_1  and  C_7
REMARK    4  A    between atoms: N_1  and  C_8
REMARK    5  A    between atoms: C_2  and  C_3
REMARK    6  A    between atoms: C_3  and  O_5
REMARK                            x       y       z     vdW  Elec       q    Type
REMARK                         _______ _______ _______ _____ _____    ______ ____
ROOT
ATOM      1  C   UNL     1      74.287  20.829  62.586  0.00  0.00    +0.046 C 
ENDROOT
BRANCH   1   2
ATOM      2  N   UNL     1      75.079  20.649  61.334  0.00  0.00    +0.381 N 
ATOM      3  C   UNL     1      76.456  21.173  61.497  0.00  0.00    -0.092 C 
ATOM      4  C   UNL     1      75.134  19.220  60.941  0.00  0.00    -0.092 C 
ATOM      5  C   UNL     1      74.412  21.410  60.249  0.00  0.00    -0.092 C 
ENDBRANCH   1   2
BRANCH   1   6
ATOM      6  C   UNL     1      75.089  20.646  63.849  0.00  0.00    +0.288 C 
ATOM      7  O   UNL     1      75.429  21.649  64.534  0.00  0.00    -0.253 OA
BRANCH   6   8
ATOM      8  O   UNL     1      75.460  19.369  64.258  0.00  0.00    -0.482 OA
ATOM      9  H   UNL     1      76.343  18.966  63.965  0.00  0.00    +0.295 HD
ENDBRANCH   6   8
ENDBRANCH   1   6
TORSDOF 3
ENDMDL
