MODEL 19
REMARK VINA RESULT:    -5.972      7.435      9.732
REMARK INTER + INTRA:          -9.018
REMARK INTER:                  -8.326
REMARK INTRA:                  -0.691
REMARK UNBOUND:                -0.951
REMARK  Name = 5GP
REMARK  8 active torsions:
REMARK  status: ('A' for Active; 'I' for Inactive)
REMARK    1  A    between atoms: P_1  and  O_3
REMARK    2  A    between atoms: P_1  and  O_4
REMARK    3  A    between atoms: P_1  and  O_5
REMARK    4  A    between atoms: O_5  and  C_6
REMARK    5  A    between atoms: C_6  and  C_7
REMARK    6  A    between atoms: C_9  and  O_10
REMARK    7  A    between atoms: C_11  and  O_12
REMARK    8  A    between atoms: C_13  and  N_14
REMARK                            x       y       z     vdW  Elec       q    Type
REMARK                         _______ _______ _______ _____ _____    ______ ____
ROOT
ATOM      1  C   UNL     1      34.339  -3.544  49.390  0.00  0.00    +0.178 C 
ATOM      2  O   UNL     1      33.050  -2.965  49.463  0.00  0.00    -0.346 OA
ATOM      3  C   UNL     1      34.651  -4.249  50.718  0.00  0.00    +0.178 C 
ATOM      4  C   UNL     1      33.271  -4.516  51.273  0.00  0.00    +0.195 C 
ATOM      5  C   UNL     1      32.434  -3.394  50.661  0.00  0.00    +0.253 C 
ENDROOT
BRANCH   5   6
ATOM      6  N   UNL     1      31.071  -3.854  50.391  0.00  0.00    -0.285 N 
ATOM      7  C   UNL     1      30.625  -5.133  50.266  0.00  0.00    +0.203 A 
ATOM      8  N   UNL     1      29.273  -5.220  50.121  0.00  0.00    -0.229 NA
ATOM      9  C   UNL     1      28.886  -3.931  50.173  0.00  0.00    +0.172 A 
ATOM     10  C   UNL     1      27.611  -3.391  50.108  0.00  0.00    +0.280 A 
ATOM     11  O   UNL     1      26.598  -4.126  49.957  0.00  0.00    -0.265 OA
ATOM     12  N   UNL     1      27.483  -2.033  50.219  0.00  0.00    -0.293 N 
ATOM     13  C   UNL     1      28.585  -1.228  50.396  0.00  0.00    +0.195 A 
ATOM     14  N   UNL     1      28.430   0.186  50.515  0.00  0.00    -0.329 N 
ATOM     15  N   UNL     1      29.838  -1.777  50.461  0.00  0.00    -0.196 NA
ATOM     16  C   UNL     1      29.953  -3.121  50.340  0.00  0.00    +0.171 A 
ATOM     17  H   UNL     1      26.531  -1.603  50.173  0.00  0.00    +0.172 HD
ATOM     18  H   UNL     1      29.263   0.798  50.651  0.00  0.00    +0.145 HD
ATOM     19  H   UNL     1      27.483   0.623  50.469  0.00  0.00    +0.145 HD
ENDBRANCH   5   6
BRANCH   3  20
ATOM     20  O   UNL     1      35.420  -3.427  51.568  0.00  0.00    -0.386 OA
ATOM     21  H   UNL     1      34.997  -3.423  52.467  0.00  0.00    +0.210 HD
ENDBRANCH   3  20
BRANCH   4  22
ATOM     22  O   UNL     1      33.225  -4.555  52.680  0.00  0.00    -0.385 OA
ATOM     23  H   UNL     1      34.136  -4.745  53.025  0.00  0.00    +0.210 HD
ENDBRANCH   4  22
BRANCH   1  24
ATOM     24  C   UNL     1      34.389  -4.519  48.207  0.00  0.00    +0.206 C 
BRANCH  24  25
ATOM     25  O   UNL     1      35.531  -5.334  48.328  0.00  0.00    -0.284 OA
BRANCH  25  26
ATOM     26  P   UNL     1      36.519  -5.091  46.958  0.00  0.00    +0.472 P 
ATOM     27  O   UNL     1      35.797  -4.227  45.947  0.00  0.00    -0.228 OA
BRANCH  26  28
ATOM     28  O   UNL     1      36.935  -6.575  46.254  0.00  0.00    -0.303 OA
ATOM     29  H   UNL     1      36.870  -7.237  46.988  0.00  0.00    +0.222 HD
ENDBRANCH  26  28
BRANCH  26  30
ATOM     30  O   UNL     1      37.936  -4.304  47.441  0.00  0.00    -0.303 OA
ATOM     31  H   UNL     1      38.539  -5.030  47.742  0.00  0.00    +0.222 HD
ENDBRANCH  26  30
ENDBRANCH  25  26
ENDBRANCH  24  25
ENDBRANCH   1  24
TORSDOF 8
ENDMDL
