MODEL 15
REMARK VINA RESULT:    -6.120      4.388      6.617
REMARK INTER + INTRA:          -9.217
REMARK INTER:                  -8.464
REMARK INTRA:                  -0.753
REMARK UNBOUND:                -0.951
REMARK  Name = 5GP
REMARK  8 active torsions:
REMARK  status: ('A' for Active; 'I' for Inactive)
REMARK    1  A    between atoms: P_1  and  O_3
REMARK    2  A    between atoms: P_1  and  O_4
REMARK    3  A    between atoms: P_1  and  O_5
REMARK    4  A    between atoms: O_5  and  C_6
REMARK    5  A    between atoms: C_6  and  C_7
REMARK    6  A    between atoms: C_9  and  O_10
REMARK    7  A    between atoms: C_11  and  O_12
REMARK    8  A    between atoms: C_13  and  N_14
REMARK                            x       y       z     vdW  Elec       q    Type
REMARK                         _______ _______ _______ _____ _____    ______ ____
ROOT
ATOM      1  C   UNL     1      30.796  -2.494  49.064  0.00  0.00    +0.178 C 
ATOM      2  O   UNL     1      29.407  -2.688  48.875  0.00  0.00    -0.346 OA
ATOM      3  C   UNL     1      31.099  -0.989  49.069  0.00  0.00    +0.178 C 
ATOM      4  C   UNL     1      29.766  -0.393  49.455  0.00  0.00    +0.195 C 
ATOM      5  C   UNL     1      28.767  -1.429  48.940  0.00  0.00    +0.253 C 
ENDROOT
BRANCH   5   6
ATOM      6  N   UNL     1      27.599  -1.502  49.818  0.00  0.00    -0.285 N 
ATOM      7  C   UNL     1      27.426  -2.273  50.925  0.00  0.00    +0.203 A 
ATOM      8  N   UNL     1      26.259  -2.021  51.581  0.00  0.00    -0.229 NA
ATOM      9  C   UNL     1      25.707  -1.043  50.837  0.00  0.00    +0.172 A 
ATOM     10  C   UNL     1      24.517  -0.356  51.027  0.00  0.00    +0.280 A 
ATOM     11  O   UNL     1      23.756  -0.626  51.994  0.00  0.00    -0.265 OA
ATOM     12  N   UNL     1      24.196   0.629  50.134  0.00  0.00    -0.293 N 
ATOM     13  C   UNL     1      25.031   0.935  49.083  0.00  0.00    +0.195 A 
ATOM     14  N   UNL     1      24.680   1.971  48.166  0.00  0.00    -0.329 N 
ATOM     15  N   UNL     1      26.204   0.250  48.911  0.00  0.00    -0.196 NA
ATOM     16  C   UNL     1      26.507  -0.729  49.796  0.00  0.00    +0.171 A 
ATOM     17  H   UNL     1      23.304   1.160  50.257  0.00  0.00    +0.172 HD
ATOM     18  H   UNL     1      25.312   2.206  47.369  0.00  0.00    +0.145 HD
ATOM     19  H   UNL     1      23.791   2.506  48.280  0.00  0.00    +0.145 HD
ENDBRANCH   5   6
BRANCH   3  20
ATOM     20  O   UNL     1      31.537  -0.549  47.803  0.00  0.00    -0.386 OA
ATOM     21  H   UNL     1      30.812  -0.012  47.390  0.00  0.00    +0.210 HD
ENDBRANCH   3  20
BRANCH   4  22
ATOM     22  O   UNL     1      29.556   0.901  48.940  0.00  0.00    -0.385 OA
ATOM     23  H   UNL     1      28.853   0.858  48.242  0.00  0.00    +0.210 HD
ENDBRANCH   4  22
BRANCH   1  24
ATOM     24  C   UNL     1      31.225  -3.162  50.377  0.00  0.00    +0.206 C 
BRANCH  24  25
ATOM     25  O   UNL     1      32.625  -3.080  50.501  0.00  0.00    -0.284 OA
BRANCH  25  26
ATOM     26  P   UNL     1      33.223  -4.616  50.941  0.00  0.00    +0.472 P 
ATOM     27  O   UNL     1      32.073  -5.569  51.180  0.00  0.00    -0.228 OA
BRANCH  26  28
ATOM     28  O   UNL     1      34.179  -4.505  52.336  0.00  0.00    -0.303 OA
ATOM     29  H   UNL     1      34.854  -5.224  52.245  0.00  0.00    +0.222 HD
ENDBRANCH  26  28
BRANCH  26  30
ATOM     30  O   UNL     1      34.177  -5.211  49.677  0.00  0.00    -0.303 OA
ATOM     31  H   UNL     1      33.687  -6.004  49.342  0.00  0.00    +0.222 HD
ENDBRANCH  26  30
ENDBRANCH  25  26
ENDBRANCH  24  25
ENDBRANCH   1  24
TORSDOF 8
ENDMDL
