MODEL 9
REMARK VINA RESULT:    -6.394      2.749      4.189
REMARK INTER + INTRA:          -9.587
REMARK INTER:                  -8.765
REMARK INTRA:                  -0.822
REMARK UNBOUND:                -0.951
REMARK  Name = 5GP
REMARK  8 active torsions:
REMARK  status: ('A' for Active; 'I' for Inactive)
REMARK    1  A    between atoms: P_1  and  O_3
REMARK    2  A    between atoms: P_1  and  O_4
REMARK    3  A    between atoms: P_1  and  O_5
REMARK    4  A    between atoms: O_5  and  C_6
REMARK    5  A    between atoms: C_6  and  C_7
REMARK    6  A    between atoms: C_9  and  O_10
REMARK    7  A    between atoms: C_11  and  O_12
REMARK    8  A    between atoms: C_13  and  N_14
REMARK                            x       y       z     vdW  Elec       q    Type
REMARK                         _______ _______ _______ _____ _____    ______ ____
ROOT
ATOM      1  C   UNL     1      24.073  -1.018  52.367  0.00  0.00    +0.178 C 
ATOM      2  O   UNL     1      25.396  -0.614  52.069  0.00  0.00    -0.346 OA
ATOM      3  C   UNL     1      23.373  -1.449  51.070  0.00  0.00    +0.178 C 
ATOM      4  C   UNL     1      24.539  -1.806  50.178  0.00  0.00    +0.195 C 
ATOM      5  C   UNL     1      25.663  -0.921  50.715  0.00  0.00    +0.253 C 
ENDROOT
BRANCH   5   6
ATOM      6  N   UNL     1      26.955  -1.599  50.597  0.00  0.00    -0.285 N 
ATOM      7  C   UNL     1      27.196  -2.930  50.456  0.00  0.00    +0.203 A 
ATOM      8  N   UNL     1      28.513  -3.222  50.264  0.00  0.00    -0.229 NA
ATOM      9  C   UNL     1      29.090  -2.006  50.280  0.00  0.00    +0.172 A 
ATOM     10  C   UNL     1      30.423  -1.661  50.105  0.00  0.00    +0.280 A 
ATOM     11  O   UNL     1      31.305  -2.541  49.922  0.00  0.00    -0.265 OA
ATOM     12  N   UNL     1      30.750  -0.332  50.134  0.00  0.00    -0.293 N 
ATOM     13  C   UNL     1      29.787   0.632  50.322  0.00  0.00    +0.195 A 
ATOM     14  N   UNL     1      30.149   2.013  50.343  0.00  0.00    -0.329 N 
ATOM     15  N   UNL     1      28.476   0.276  50.490  0.00  0.00    -0.196 NA
ATOM     16  C   UNL     1      28.165  -1.042  50.469  0.00  0.00    +0.171 A 
ATOM     17  H   UNL     1      31.747  -0.048  50.005  0.00  0.00    +0.172 HD
ATOM     18  H   UNL     1      29.420   2.747  50.484  0.00  0.00    +0.145 HD
ATOM     19  H   UNL     1      31.142   2.306  50.216  0.00  0.00    +0.145 HD
ENDBRANCH   5   6
BRANCH   3  20
ATOM     20  O   UNL     1      22.591  -0.403  50.537  0.00  0.00    -0.386 OA
ATOM     21  H   UNL     1      22.775  -0.339  49.563  0.00  0.00    +0.210 HD
ENDBRANCH   3  20
BRANCH   4  22
ATOM     22  O   UNL     1      24.278  -1.620  48.806  0.00  0.00    -0.385 OA
ATOM     23  H   UNL     1      24.560  -0.705  48.547  0.00  0.00    +0.210 HD
ENDBRANCH   4  22
BRANCH   1  24
ATOM     24  C   UNL     1      24.112  -2.157  53.394  0.00  0.00    +0.206 C 
BRANCH  24  25
ATOM     25  O   UNL     1      25.335  -2.109  54.091  0.00  0.00    -0.284 OA
BRANCH  25  26
ATOM     26  P   UNL     1      25.062  -1.398  55.618  0.00  0.00    +0.472 P 
ATOM     27  O   UNL     1      25.860  -0.118  55.742  0.00  0.00    -0.228 OA
BRANCH  26  28
ATOM     28  O   UNL     1      25.494  -2.469  56.858  0.00  0.00    -0.303 OA
ATOM     29  H   UNL     1      24.641  -2.713  57.298  0.00  0.00    +0.222 HD
ENDBRANCH  26  28
BRANCH  26  30
ATOM     30  O   UNL     1      23.416  -1.036  55.764  0.00  0.00    -0.303 OA
ATOM     31  H   UNL     1      23.069  -1.696  56.416  0.00  0.00    +0.222 HD
ENDBRANCH  26  30
ENDBRANCH  25  26
ENDBRANCH  24  25
ENDBRANCH   1  24
TORSDOF 8
ENDMDL
