MODEL 20
REMARK VINA RESULT:    -5.887      4.238      6.920
REMARK INTER + INTRA:          -8.903
REMARK INTER:                  -8.151
REMARK INTRA:                  -0.751
REMARK UNBOUND:                -0.951
REMARK  Name = 5GP
REMARK  8 active torsions:
REMARK  status: ('A' for Active; 'I' for Inactive)
REMARK    1  A    between atoms: P_1  and  O_3
REMARK    2  A    between atoms: P_1  and  O_4
REMARK    3  A    between atoms: P_1  and  O_5
REMARK    4  A    between atoms: O_5  and  C_6
REMARK    5  A    between atoms: C_6  and  C_7
REMARK    6  A    between atoms: C_9  and  O_10
REMARK    7  A    between atoms: C_11  and  O_12
REMARK    8  A    between atoms: C_13  and  N_14
REMARK                            x       y       z     vdW  Elec       q    Type
REMARK                         _______ _______ _______ _____ _____    ______ ____
ROOT
ATOM      1  C   UNL     1      30.388  -2.332  49.520  0.00  0.00    +0.178 C 
ATOM      2  O   UNL     1      29.072  -2.795  49.280  0.00  0.00    -0.346 OA
ATOM      3  C   UNL     1      30.324  -0.939  50.163  0.00  0.00    +0.178 C 
ATOM      4  C   UNL     1      28.945  -0.932  50.779  0.00  0.00    +0.195 C 
ATOM      5  C   UNL     1      28.165  -1.892  49.881  0.00  0.00    +0.253 C 
ENDROOT
BRANCH   5   6
ATOM      6  N   UNL     1      27.164  -2.626  50.657  0.00  0.00    -0.285 N 
ATOM      7  C   UNL     1      27.230  -3.902  51.123  0.00  0.00    +0.203 A 
ATOM      8  N   UNL     1      26.170  -4.246  51.905  0.00  0.00    -0.229 NA
ATOM      9  C   UNL     1      25.435  -3.117  51.920  0.00  0.00    +0.172 A 
ATOM     10  C   UNL     1      24.244  -2.850  52.580  0.00  0.00    +0.280 A 
ATOM     11  O   UNL     1      23.672  -3.731  53.276  0.00  0.00    -0.265 OA
ATOM     12  N   UNL     1      23.711  -1.596  52.457  0.00  0.00    -0.293 N 
ATOM     13  C   UNL     1      24.339  -0.627  51.707  0.00  0.00    +0.195 A 
ATOM     14  N   UNL     1      23.769   0.677  51.597  0.00  0.00    -0.329 N 
ATOM     15  N   UNL     1      25.515  -0.906  51.064  0.00  0.00    -0.196 NA
ATOM     16  C   UNL     1      26.029  -2.153  51.186  0.00  0.00    +0.171 A 
ATOM     17  H   UNL     1      22.815  -1.371  52.945  0.00  0.00    +0.172 HD
ATOM     18  H   UNL     1      24.244   1.413  51.030  0.00  0.00    +0.145 HD
ATOM     19  H   UNL     1      22.873   0.910  52.080  0.00  0.00    +0.145 HD
ENDBRANCH   5   6
BRANCH   3  20
ATOM     20  O   UNL     1      30.487   0.078  49.200  0.00  0.00    -0.386 OA
ATOM     21  H   UNL     1      31.006  -0.291  48.438  0.00  0.00    +0.210 HD
ENDBRANCH   3  20
BRANCH   4  22
ATOM     22  O   UNL     1      28.372   0.353  50.867  0.00  0.00    -0.385 OA
ATOM     23  H   UNL     1      27.825   0.403  51.692  0.00  0.00    +0.210 HD
ENDBRANCH   4  22
BRANCH   1  24
ATOM     24  C   UNL     1      31.120  -3.337  50.419  0.00  0.00    +0.206 C 
BRANCH  24  25
ATOM     25  O   UNL     1      32.101  -4.005  49.661  0.00  0.00    -0.284 OA
BRANCH  25  26
ATOM     26  P   UNL     1      32.757  -5.263  50.608  0.00  0.00    +0.472 P 
ATOM     27  O   UNL     1      33.243  -4.713  51.932  0.00  0.00    -0.228 OA
BRANCH  26  28
ATOM     28  O   UNL     1      34.037  -6.017  49.793  0.00  0.00    -0.303 OA
ATOM     29  H   UNL     1      34.650  -6.328  50.506  0.00  0.00    +0.222 HD
ENDBRANCH  26  28
BRANCH  26  30
ATOM     30  O   UNL     1      31.549  -6.411  50.900  0.00  0.00    -0.303 OA
ATOM     31  H   UNL     1      31.506  -6.950  50.070  0.00  0.00    +0.222 HD
ENDBRANCH  26  30
ENDBRANCH  25  26
ENDBRANCH  24  25
ENDBRANCH   1  24
TORSDOF 8
ENDMDL
