MODEL 1
REMARK VINA RESULT:    -6.827      0.000      0.000
REMARK INTER + INTRA:         -10.173
REMARK INTER:                  -9.222
REMARK INTRA:                  -0.951
REMARK UNBOUND:                -0.951
REMARK  Name = 5GP
REMARK  8 active torsions:
REMARK  status: ('A' for Active; 'I' for Inactive)
REMARK    1  A    between atoms: P_1  and  O_3
REMARK    2  A    between atoms: P_1  and  O_4
REMARK    3  A    between atoms: P_1  and  O_5
REMARK    4  A    between atoms: O_5  and  C_6
REMARK    5  A    between atoms: C_6  and  C_7
REMARK    6  A    between atoms: C_9  and  O_10
REMARK    7  A    between atoms: C_11  and  O_12
REMARK    8  A    between atoms: C_13  and  N_14
REMARK                            x       y       z     vdW  Elec       q    Type
REMARK                         _______ _______ _______ _____ _____    ______ ____
ROOT
ATOM      1  C   UNL     1      24.445  -3.767  52.874  0.00  0.00    +0.178 C 
ATOM      2  O   UNL     1      24.030  -3.314  51.599  0.00  0.00    -0.346 OA
ATOM      3  C   UNL     1      25.949  -3.507  53.037  0.00  0.00    +0.178 C 
ATOM      4  C   UNL     1      26.191  -2.389  52.051  0.00  0.00    +0.195 C 
ATOM      5  C   UNL     1      25.106  -2.619  51.000  0.00  0.00    +0.253 C 
ENDROOT
BRANCH   5   6
ATOM      6  N   UNL     1      24.640  -1.345  50.452  0.00  0.00    -0.285 N 
ATOM      7  C   UNL     1      23.576  -0.596  50.851  0.00  0.00    +0.203 A 
ATOM      8  N   UNL     1      23.481   0.596  50.198  0.00  0.00    -0.229 NA
ATOM      9  C   UNL     1      24.546   0.568  49.374  0.00  0.00    +0.172 A 
ATOM     10  C   UNL     1      24.990   1.526  48.475  0.00  0.00    +0.280 A 
ATOM     11  O   UNL     1      24.364   2.608  48.314  0.00  0.00    -0.265 OA
ATOM     12  N   UNL     1      26.133   1.264  47.771  0.00  0.00    -0.293 N 
ATOM     13  C   UNL     1      26.825   0.088  47.952  0.00  0.00    +0.195 A 
ATOM     14  N   UNL     1      28.019  -0.164  47.212  0.00  0.00    -0.329 N 
ATOM     15  N   UNL     1      26.375  -0.847  48.845  0.00  0.00    -0.196 NA
ATOM     16  C   UNL     1      25.238  -0.581  49.530  0.00  0.00    +0.171 A 
ATOM     17  H   UNL     1      26.487   1.971  47.088  0.00  0.00    +0.172 HD
ATOM     18  H   UNL     1      28.547  -1.054  47.348  0.00  0.00    +0.145 HD
ATOM     19  H   UNL     1      28.379   0.537  46.527  0.00  0.00    +0.145 HD
ENDBRANCH   5   6
BRANCH   3  20
ATOM     20  O   UNL     1      26.705  -4.659  52.737  0.00  0.00    -0.386 OA
ATOM     21  H   UNL     1      26.162  -5.459  52.965  0.00  0.00    +0.210 HD
ENDBRANCH   3  20
BRANCH   4  22
ATOM     22  O   UNL     1      27.498  -2.374  51.522  0.00  0.00    -0.385 OA
ATOM     23  H   UNL     1      27.971  -1.570  51.860  0.00  0.00    +0.210 HD
ENDBRANCH   4  22
BRANCH   1  24
ATOM     24  C   UNL     1      23.627  -3.051  53.955  0.00  0.00    +0.206 C 
BRANCH  24  25
ATOM     25  O   UNL     1      24.398  -2.954  55.129  0.00  0.00    -0.284 OA
BRANCH  25  26
ATOM     26  P   UNL     1      24.317  -1.348  55.701  0.00  0.00    +0.472 P 
ATOM     27  O   UNL     1      24.548  -1.321  57.197  0.00  0.00    -0.228 OA
BRANCH  26  28
ATOM     28  O   UNL     1      22.810  -0.663  55.339  0.00  0.00    -0.303 OA
ATOM     29  H   UNL     1      22.538  -1.075  54.480  0.00  0.00    +0.222 HD
ENDBRANCH  26  28
BRANCH  26  30
ATOM     30  O   UNL     1      25.523  -0.438  54.941  0.00  0.00    -0.303 OA
ATOM     31  H   UNL     1      25.732  -0.936  54.112  0.00  0.00    +0.222 HD
ENDBRANCH  26  30
ENDBRANCH  25  26
ENDBRANCH  24  25
ENDBRANCH   1  24
TORSDOF 8
ENDMDL
