MODEL 8
REMARK VINA RESULT:    -6.479      3.226      5.465
REMARK INTER + INTRA:          -9.703
REMARK INTER:                  -9.044
REMARK INTRA:                  -0.658
REMARK UNBOUND:                -0.951
REMARK  Name = 5GP
REMARK  8 active torsions:
REMARK  status: ('A' for Active; 'I' for Inactive)
REMARK    1  A    between atoms: P_1  and  O_3
REMARK    2  A    between atoms: P_1  and  O_4
REMARK    3  A    between atoms: P_1  and  O_5
REMARK    4  A    between atoms: O_5  and  C_6
REMARK    5  A    between atoms: C_6  and  C_7
REMARK    6  A    between atoms: C_9  and  O_10
REMARK    7  A    between atoms: C_11  and  O_12
REMARK    8  A    between atoms: C_13  and  N_14
REMARK                            x       y       z     vdW  Elec       q    Type
REMARK                         _______ _______ _______ _____ _____    ______ ____
ROOT
ATOM      1  C   UNL     1      25.410  -2.053  51.562  0.00  0.00    +0.178 C 
ATOM      2  O   UNL     1      24.638  -2.930  50.764  0.00  0.00    -0.346 OA
ATOM      3  C   UNL     1      25.063  -0.602  51.198  0.00  0.00    +0.178 C 
ATOM      4  C   UNL     1      23.682  -0.741  50.601  0.00  0.00    +0.195 C 
ATOM      5  C   UNL     1      23.693  -2.164  50.044  0.00  0.00    +0.253 C 
ENDROOT
BRANCH   5   6
ATOM      6  N   UNL     1      22.365  -2.770  50.151  0.00  0.00    -0.285 N 
ATOM      7  C   UNL     1      21.606  -3.313  49.161  0.00  0.00    +0.203 A 
ATOM      8  N   UNL     1      20.460  -3.891  49.617  0.00  0.00    -0.229 NA
ATOM      9  C   UNL     1      20.539  -3.696  50.947  0.00  0.00    +0.172 A 
ATOM     10  C   UNL     1      19.666  -4.094  51.949  0.00  0.00    +0.280 A 
ATOM     11  O   UNL     1      18.603  -4.714  51.680  0.00  0.00    -0.265 OA
ATOM     12  N   UNL     1      19.997  -3.795  53.243  0.00  0.00    -0.293 N 
ATOM     13  C   UNL     1      21.163  -3.128  53.542  0.00  0.00    +0.195 A 
ATOM     14  N   UNL     1      21.493  -2.832  54.899  0.00  0.00    -0.329 N 
ATOM     15  N   UNL     1      22.016  -2.745  52.542  0.00  0.00    -0.196 NA
ATOM     16  C   UNL     1      21.674  -3.037  51.265  0.00  0.00    +0.171 A 
ATOM     17  H   UNL     1      19.355  -4.085  54.015  0.00  0.00    +0.172 HD
ATOM     18  H   UNL     1      22.377  -2.328  55.129  0.00  0.00    +0.145 HD
ATOM     19  H   UNL     1      20.857  -3.116  55.677  0.00  0.00    +0.145 HD
ENDBRANCH   5   6
BRANCH   3  20
ATOM     20  O   UNL     1      25.992  -0.067  50.282  0.00  0.00    -0.386 OA
ATOM     21  H   UNL     1      26.257  -0.785  49.649  0.00  0.00    +0.210 HD
ENDBRANCH   3  20
BRANCH   4  22
ATOM     22  O   UNL     1      23.382   0.243  49.638  0.00  0.00    -0.385 OA
ATOM     23  H   UNL     1      22.738  -0.135  48.985  0.00  0.00    +0.210 HD
ENDBRANCH   4  22
BRANCH   1  24
ATOM     24  C   UNL     1      25.135  -2.345  53.043  0.00  0.00    +0.206 C 
BRANCH  24  25
ATOM     25  O   UNL     1      24.782  -1.147  53.692  0.00  0.00    -0.284 OA
BRANCH  25  26
ATOM     26  P   UNL     1      25.233  -1.264  55.334  0.00  0.00    +0.472 P 
ATOM     27  O   UNL     1      26.042  -0.050  55.736  0.00  0.00    -0.228 OA
BRANCH  26  28
ATOM     28  O   UNL     1      26.137  -2.672  55.603  0.00  0.00    -0.303 OA
ATOM     29  H   UNL     1      27.065  -2.438  55.348  0.00  0.00    +0.222 HD
ENDBRANCH  26  28
BRANCH  26  30
ATOM     30  O   UNL     1      23.833  -1.330  56.280  0.00  0.00    -0.303 OA
ATOM     31  H   UNL     1      23.512  -2.263  56.193  0.00  0.00    +0.222 HD
ENDBRANCH  26  30
ENDBRANCH  25  26
ENDBRANCH  24  25
ENDBRANCH   1  24
TORSDOF 8
ENDMDL
