MODEL 14
REMARK VINA RESULT:    -6.154      3.129      5.759
REMARK INTER + INTRA:          -9.263
REMARK INTER:                  -8.677
REMARK INTRA:                  -0.586
REMARK UNBOUND:                -0.951
REMARK  Name = 5GP
REMARK  8 active torsions:
REMARK  status: ('A' for Active; 'I' for Inactive)
REMARK    1  A    between atoms: P_1  and  O_3
REMARK    2  A    between atoms: P_1  and  O_4
REMARK    3  A    between atoms: P_1  and  O_5
REMARK    4  A    between atoms: O_5  and  C_6
REMARK    5  A    between atoms: C_6  and  C_7
REMARK    6  A    between atoms: C_9  and  O_10
REMARK    7  A    between atoms: C_11  and  O_12
REMARK    8  A    between atoms: C_13  and  N_14
REMARK                            x       y       z     vdW  Elec       q    Type
REMARK                         _______ _______ _______ _____ _____    ______ ____
ROOT
ATOM      1  C   UNL     1      23.813  -3.257  49.255  0.00  0.00    +0.178 C 
ATOM      2  O   UNL     1      23.859  -3.781  50.569  0.00  0.00    -0.346 OA
ATOM      3  C   UNL     1      22.349  -3.032  48.852  0.00  0.00    +0.178 C 
ATOM      4  C   UNL     1      21.662  -2.907  50.192  0.00  0.00    +0.195 C 
ATOM      5  C   UNL     1      22.554  -3.740  51.112  0.00  0.00    +0.253 C 
ENDROOT
BRANCH   5   6
ATOM      6  N   UNL     1      22.586  -3.167  52.458  0.00  0.00    -0.285 N 
ATOM      7  C   UNL     1      21.642  -3.258  53.433  0.00  0.00    +0.203 A 
ATOM      8  N   UNL     1      22.030  -2.699  54.613  0.00  0.00    -0.229 NA
ATOM      9  C   UNL     1      23.273  -2.260  54.337  0.00  0.00    +0.172 A 
ATOM     10  C   UNL     1      24.186  -1.625  55.165  0.00  0.00    +0.280 A 
ATOM     11  O   UNL     1      23.902  -1.352  56.362  0.00  0.00    -0.265 OA
ATOM     12  N   UNL     1      25.411  -1.307  54.644  0.00  0.00    -0.293 N 
ATOM     13  C   UNL     1      25.729  -1.613  53.341  0.00  0.00    +0.195 A 
ATOM     14  N   UNL     1      27.015  -1.278  52.818  0.00  0.00    -0.329 N 
ATOM     15  N   UNL     1      24.818  -2.243  52.537  0.00  0.00    -0.196 NA
ATOM     16  C   UNL     1      23.605  -2.545  53.061  0.00  0.00    +0.171 A 
ATOM     17  H   UNL     1      26.116  -0.828  55.249  0.00  0.00    +0.172 HD
ATOM     18  H   UNL     1      27.259  -1.511  51.831  0.00  0.00    +0.145 HD
ATOM     19  H   UNL     1      27.724  -0.799  53.415  0.00  0.00    +0.145 HD
ENDBRANCH   5   6
BRANCH   3  20
ATOM     20  O   UNL     1      21.853  -4.112  48.094  0.00  0.00    -0.386 OA
ATOM     21  H   UNL     1      22.171  -4.957  48.507  0.00  0.00    +0.210 HD
ENDBRANCH   3  20
BRANCH   4  22
ATOM     22  O   UNL     1      20.316  -3.325  50.178  0.00  0.00    -0.385 OA
ATOM     23  H   UNL     1      19.752  -2.598  50.549  0.00  0.00    +0.210 HD
ENDBRANCH   4  22
BRANCH   1  24
ATOM     24  C   UNL     1      24.622  -1.954  49.202  0.00  0.00    +0.206 C 
BRANCH  24  25
ATOM     25  O   UNL     1      23.807  -0.926  48.690  0.00  0.00    -0.284 OA
BRANCH  25  26
ATOM     26  P   UNL     1      23.896   0.413  49.743  0.00  0.00    +0.472 P 
ATOM     27  O   UNL     1      22.612   0.534  50.535  0.00  0.00    -0.228 OA
BRANCH  26  28
ATOM     28  O   UNL     1      24.171   1.839  48.870  0.00  0.00    -0.303 OA
ATOM     29  H   UNL     1      25.060   1.719  48.451  0.00  0.00    +0.222 HD
ENDBRANCH  26  28
BRANCH  26  30
ATOM     30  O   UNL     1      25.183   0.178  50.816  0.00  0.00    -0.303 OA
ATOM     31  H   UNL     1      25.257   1.031  51.313  0.00  0.00    +0.222 HD
ENDBRANCH  26  30
ENDBRANCH  25  26
ENDBRANCH  24  25
ENDBRANCH   1  24
TORSDOF 8
ENDMDL
