MODEL 7
REMARK VINA RESULT:    -6.508      3.561      6.925
REMARK INTER + INTRA:          -9.741
REMARK INTER:                  -8.963
REMARK INTRA:                  -0.778
REMARK UNBOUND:                -0.951
REMARK  Name = 5GP
REMARK  8 active torsions:
REMARK  status: ('A' for Active; 'I' for Inactive)
REMARK    1  A    between atoms: P_1  and  O_3
REMARK    2  A    between atoms: P_1  and  O_4
REMARK    3  A    between atoms: P_1  and  O_5
REMARK    4  A    between atoms: O_5  and  C_6
REMARK    5  A    between atoms: C_6  and  C_7
REMARK    6  A    between atoms: C_9  and  O_10
REMARK    7  A    between atoms: C_11  and  O_12
REMARK    8  A    between atoms: C_13  and  N_14
REMARK                            x       y       z     vdW  Elec       q    Type
REMARK                         _______ _______ _______ _____ _____    ______ ____
ROOT
ATOM      1  C   UNL     1      26.257  -0.861  49.248  0.00  0.00    +0.178 C 
ATOM      2  O   UNL     1      26.177  -1.845  50.261  0.00  0.00    -0.346 OA
ATOM      3  C   UNL     1      24.949  -0.057  49.221  0.00  0.00    +0.178 C 
ATOM      4  C   UNL     1      24.415  -0.265  50.619  0.00  0.00    +0.195 C 
ATOM      5  C   UNL     1      24.998  -1.623  51.009  0.00  0.00    +0.253 C 
ENDROOT
BRANCH   5   6
ATOM      6  N   UNL     1      25.294  -1.665  52.441  0.00  0.00    -0.285 N 
ATOM      7  C   UNL     1      26.450  -1.326  53.071  0.00  0.00    +0.203 A 
ATOM      8  N   UNL     1      26.359  -1.379  54.430  0.00  0.00    -0.229 NA
ATOM      9  C   UNL     1      25.082  -1.758  54.626  0.00  0.00    +0.172 A 
ATOM     10  C   UNL     1      24.394  -1.953  55.815  0.00  0.00    +0.280 A 
ATOM     11  O   UNL     1      24.963  -1.804  56.929  0.00  0.00    -0.265 OA
ATOM     12  N   UNL     1      23.075  -2.310  55.740  0.00  0.00    -0.293 N 
ATOM     13  C   UNL     1      22.448  -2.463  54.525  0.00  0.00    +0.195 A 
ATOM     14  N   UNL     1      21.070  -2.830  54.470  0.00  0.00    -0.329 N 
ATOM     15  N   UNL     1      23.140  -2.263  53.361  0.00  0.00    -0.196 NA
ATOM     16  C   UNL     1      24.447  -1.920  53.446  0.00  0.00    +0.171 A 
ATOM     17  H   UNL     1      22.536  -2.464  56.623  0.00  0.00    +0.172 HD
ATOM     18  H   UNL     1      20.591  -2.946  53.550  0.00  0.00    +0.145 HD
ATOM     19  H   UNL     1      20.524  -2.987  55.346  0.00  0.00    +0.145 HD
ENDBRANCH   5   6
BRANCH   3  20
ATOM     20  O   UNL     1      24.068  -0.542  48.233  0.00  0.00    -0.386 OA
ATOM     21  H   UNL     1      23.260   0.036  48.222  0.00  0.00    +0.210 HD
ENDBRANCH   3  20
BRANCH   4  22
ATOM     22  O   UNL     1      23.009  -0.207  50.701  0.00  0.00    -0.385 OA
ATOM     23  H   UNL     1      22.723  -0.593  51.569  0.00  0.00    +0.210 HD
ENDBRANCH   4  22
BRANCH   1  24
ATOM     24  C   UNL     1      27.469   0.040  49.513  0.00  0.00    +0.206 C 
BRANCH  24  25
ATOM     25  O   UNL     1      27.674   0.878  48.401  0.00  0.00    -0.284 OA
BRANCH  25  26
ATOM     26  P   UNL     1      28.741   2.131  48.853  0.00  0.00    +0.472 P 
ATOM     27  O   UNL     1      29.839   2.271  47.821  0.00  0.00    -0.228 OA
BRANCH  26  28
ATOM     28  O   UNL     1      29.416   1.817  50.375  0.00  0.00    -0.303 OA
ATOM     29  H   UNL     1      28.645   1.623  50.965  0.00  0.00    +0.222 HD
ENDBRANCH  26  28
BRANCH  26  30
ATOM     30  O   UNL     1      27.874   3.581  48.933  0.00  0.00    -0.303 OA
ATOM     31  H   UNL     1      28.402   4.222  48.393  0.00  0.00    +0.222 HD
ENDBRANCH  26  30
ENDBRANCH  25  26
ENDBRANCH  24  25
ENDBRANCH   1  24
TORSDOF 8
ENDMDL
