MODEL 5
REMARK VINA RESULT:    -6.544      8.844     10.862
REMARK INTER + INTRA:          -9.790
REMARK INTER:                  -9.017
REMARK INTRA:                  -0.773
REMARK UNBOUND:                -0.951
REMARK  Name = 5GP
REMARK  8 active torsions:
REMARK  status: ('A' for Active; 'I' for Inactive)
REMARK    1  A    between atoms: P_1  and  O_3
REMARK    2  A    between atoms: P_1  and  O_4
REMARK    3  A    between atoms: P_1  and  O_5
REMARK    4  A    between atoms: O_5  and  C_6
REMARK    5  A    between atoms: C_6  and  C_7
REMARK    6  A    between atoms: C_9  and  O_10
REMARK    7  A    between atoms: C_11  and  O_12
REMARK    8  A    between atoms: C_13  and  N_14
REMARK                            x       y       z     vdW  Elec       q    Type
REMARK                         _______ _______ _______ _____ _____    ______ ____
ROOT
ATOM      1  C   UNL     1      32.469  -4.741  49.701  0.00  0.00    +0.178 C 
ATOM      2  O   UNL     1      33.153  -5.276  48.584  0.00  0.00    -0.346 OA
ATOM      3  C   UNL     1      33.472  -4.007  50.603  0.00  0.00    +0.178 C 
ATOM      4  C   UNL     1      34.590  -3.680  49.642  0.00  0.00    +0.195 C 
ATOM      5  C   UNL     1      34.482  -4.794  48.600  0.00  0.00    +0.253 C 
ENDROOT
BRANCH   5   6
ATOM      6  N   UNL     1      34.855  -4.298  47.275  0.00  0.00    -0.285 N 
ATOM      7  C   UNL     1      34.391  -3.195  46.628  0.00  0.00    +0.203 A 
ATOM      8  N   UNL     1      35.026  -2.956  45.447  0.00  0.00    -0.229 NA
ATOM      9  C   UNL     1      35.923  -3.959  45.385  0.00  0.00    +0.172 A 
ATOM     10  C   UNL     1      36.879  -4.227  44.417  0.00  0.00    +0.280 A 
ATOM     11  O   UNL     1      36.993  -3.501  43.393  0.00  0.00    -0.265 OA
ATOM     12  N   UNL     1      37.701  -5.304  44.608  0.00  0.00    -0.293 N 
ATOM     13  C   UNL     1      37.588  -6.093  45.730  0.00  0.00    +0.195 A 
ATOM     14  N   UNL     1      38.459  -7.209  45.914  0.00  0.00    -0.329 N 
ATOM     15  N   UNL     1      36.641  -5.814  46.679  0.00  0.00    -0.196 NA
ATOM     16  C   UNL     1      35.827  -4.751  46.474  0.00  0.00    +0.171 A 
ATOM     17  H   UNL     1      38.429  -5.526  43.892  0.00  0.00    +0.172 HD
ATOM     18  H   UNL     1      38.376  -7.808  46.764  0.00  0.00    +0.145 HD
ATOM     19  H   UNL     1      39.188  -7.439  45.203  0.00  0.00    +0.145 HD
ENDBRANCH   5   6
BRANCH   3  20
ATOM     20  O   UNL     1      33.901  -4.828  51.666  0.00  0.00    -0.386 OA
ATOM     21  H   UNL     1      33.385  -4.584  52.479  0.00  0.00    +0.210 HD
ENDBRANCH   3  20
BRANCH   4  22
ATOM     22  O   UNL     1      35.857  -3.599  50.255  0.00  0.00    -0.385 OA
ATOM     23  H   UNL     1      36.066  -4.474  50.674  0.00  0.00    +0.210 HD
ENDBRANCH   4  22
BRANCH   1  24
ATOM     24  C   UNL     1      31.359  -3.803  49.210  0.00  0.00    +0.206 C 
BRANCH  24  25
ATOM     25  O   UNL     1      31.150  -2.793  50.169  0.00  0.00    -0.284 OA
BRANCH  25  26
ATOM     26  P   UNL     1      30.655  -1.373  49.364  0.00  0.00    +0.472 P 
ATOM     27  O   UNL     1      29.238  -1.533  48.857  0.00  0.00    -0.228 OA
BRANCH  26  28
ATOM     28  O   UNL     1      31.694  -1.029  48.070  0.00  0.00    -0.303 OA
ATOM     29  H   UNL     1      31.954  -0.081  48.192  0.00  0.00    +0.222 HD
ENDBRANCH  26  28
BRANCH  26  30
ATOM     30  O   UNL     1      30.705  -0.082  50.456  0.00  0.00    -0.303 OA
ATOM     31  H   UNL     1      30.256   0.665  49.986  0.00  0.00    +0.222 HD
ENDBRANCH  26  30
ENDBRANCH  25  26
ENDBRANCH  24  25
ENDBRANCH   1  24
TORSDOF 8
ENDMDL
