MODEL 10
REMARK VINA RESULT:    -6.370      2.397      4.066
REMARK INTER + INTRA:          -9.555
REMARK INTER:                  -8.865
REMARK INTRA:                  -0.691
REMARK UNBOUND:                -0.951
REMARK  Name = 5GP
REMARK  8 active torsions:
REMARK  status: ('A' for Active; 'I' for Inactive)
REMARK    1  A    between atoms: P_1  and  O_3
REMARK    2  A    between atoms: P_1  and  O_4
REMARK    3  A    between atoms: P_1  and  O_5
REMARK    4  A    between atoms: O_5  and  C_6
REMARK    5  A    between atoms: C_6  and  C_7
REMARK    6  A    between atoms: C_9  and  O_10
REMARK    7  A    between atoms: C_11  and  O_12
REMARK    8  A    between atoms: C_13  and  N_14
REMARK                            x       y       z     vdW  Elec       q    Type
REMARK                         _______ _______ _______ _____ _____    ______ ____
ROOT
ATOM      1  C   UNL     1      24.554  -3.551  54.857  0.00  0.00    +0.178 C 
ATOM      2  O   UNL     1      25.600  -3.396  53.916  0.00  0.00    -0.346 OA
ATOM      3  C   UNL     1      24.464  -2.286  55.723  0.00  0.00    +0.178 C 
ATOM      4  C   UNL     1      25.104  -1.243  54.838  0.00  0.00    +0.195 C 
ATOM      5  C   UNL     1      26.071  -2.064  53.986  0.00  0.00    +0.253 C 
ENDROOT
BRANCH   5   6
ATOM      6  N   UNL     1      26.183  -1.498  52.642  0.00  0.00    -0.285 N 
ATOM      7  C   UNL     1      27.306  -1.087  51.994  0.00  0.00    +0.203 A 
ATOM      8  N   UNL     1      27.076  -0.707  50.705  0.00  0.00    -0.229 NA
ATOM      9  C   UNL     1      25.752  -0.910  50.569  0.00  0.00    +0.172 A 
ATOM     10  C   UNL     1      24.942  -0.726  49.458  0.00  0.00    +0.280 A 
ATOM     11  O   UNL     1      25.412  -0.286  48.375  0.00  0.00    -0.265 OA
ATOM     12  N   UNL     1      23.616  -1.040  49.573  0.00  0.00    -0.293 N 
ATOM     13  C   UNL     1      23.101  -1.530  50.751  0.00  0.00    +0.195 A 
ATOM     14  N   UNL     1      21.715  -1.858  50.848  0.00  0.00    -0.329 N 
ATOM     15  N   UNL     1      23.914  -1.710  51.838  0.00  0.00    -0.196 NA
ATOM     16  C   UNL     1      25.223  -1.386  51.716  0.00  0.00    +0.171 A 
ATOM     17  H   UNL     1      22.986  -0.909  48.749  0.00  0.00    +0.172 HD
ATOM     18  H   UNL     1      21.322  -2.231  51.739  0.00  0.00    +0.145 HD
ATOM     19  H   UNL     1      21.079  -1.729  50.030  0.00  0.00    +0.145 HD
ENDBRANCH   5   6
BRANCH   3  20
ATOM     20  O   UNL     1      25.151  -2.450  56.943  0.00  0.00    -0.386 OA
ATOM     21  H   UNL     1      26.089  -2.147  56.818  0.00  0.00    +0.210 HD
ENDBRANCH   3  20
BRANCH   4  22
ATOM     22  O   UNL     1      25.724  -0.199  55.553  0.00  0.00    -0.385 OA
ATOM     23  H   UNL     1      26.473   0.160  55.010  0.00  0.00    +0.210 HD
ENDBRANCH   4  22
BRANCH   1  24
ATOM     24  C   UNL     1      23.241  -3.822  54.112  0.00  0.00    +0.206 C 
BRANCH  24  25
ATOM     25  O   UNL     1      22.235  -2.985  54.631  0.00  0.00    -0.284 OA
BRANCH  25  26
ATOM     26  P   UNL     1      20.716  -3.683  54.287  0.00  0.00    +0.472 P 
ATOM     27  O   UNL     1      20.469  -3.671  52.794  0.00  0.00    -0.228 OA
BRANCH  26  28
ATOM     28  O   UNL     1      19.480  -2.840  55.082  0.00  0.00    -0.303 OA
ATOM     29  H   UNL     1      18.643  -3.126  54.635  0.00  0.00    +0.222 HD
ENDBRANCH  26  28
BRANCH  26  30
ATOM     30  O   UNL     1      20.718  -5.284  54.832  0.00  0.00    -0.303 OA
ATOM     31  H   UNL     1      20.031  -5.739  54.281  0.00  0.00    +0.222 HD
ENDBRANCH  26  30
ENDBRANCH  25  26
ENDBRANCH  24  25
ENDBRANCH   1  24
TORSDOF 8
ENDMDL
