MODEL 3
REMARK VINA RESULT:    -6.688     10.202     12.937
REMARK INTER + INTRA:          -9.984
REMARK INTER:                  -9.094
REMARK INTRA:                  -0.891
REMARK UNBOUND:                -0.951
REMARK  Name = 5GP
REMARK  8 active torsions:
REMARK  status: ('A' for Active; 'I' for Inactive)
REMARK    1  A    between atoms: P_1  and  O_3
REMARK    2  A    between atoms: P_1  and  O_4
REMARK    3  A    between atoms: P_1  and  O_5
REMARK    4  A    between atoms: O_5  and  C_6
REMARK    5  A    between atoms: C_6  and  C_7
REMARK    6  A    between atoms: C_9  and  O_10
REMARK    7  A    between atoms: C_11  and  O_12
REMARK    8  A    between atoms: C_13  and  N_14
REMARK                            x       y       z     vdW  Elec       q    Type
REMARK                         _______ _______ _______ _____ _____    ______ ____
ROOT
ATOM      1  C   UNL     1      36.740  -3.623  45.451  0.00  0.00    +0.178 C 
ATOM      2  O   UNL     1      35.468  -3.220  45.920  0.00  0.00    -0.346 OA
ATOM      3  C   UNL     1      37.584  -4.112  46.637  0.00  0.00    +0.178 C 
ATOM      4  C   UNL     1      36.528  -4.495  47.647  0.00  0.00    +0.195 C 
ATOM      5  C   UNL     1      35.360  -3.579  47.283  0.00  0.00    +0.253 C 
ENDROOT
BRANCH   5   6
ATOM      6  N   UNL     1      34.083  -4.250  47.528  0.00  0.00    -0.285 N 
ATOM      7  C   UNL     1      33.222  -4.778  46.617  0.00  0.00    +0.203 A 
ATOM      8  N   UNL     1      32.169  -5.431  47.185  0.00  0.00    -0.229 NA
ATOM      9  C   UNL     1      32.414  -5.297  48.502  0.00  0.00    +0.172 A 
ATOM     10  C   UNL     1      31.697  -5.783  49.586  0.00  0.00    +0.280 A 
ATOM     11  O   UNL     1      30.632  -6.437  49.422  0.00  0.00    -0.265 OA
ATOM     12  N   UNL     1      32.183  -5.533  50.840  0.00  0.00    -0.293 N 
ATOM     13  C   UNL     1      33.351  -4.829  51.022  0.00  0.00    +0.195 A 
ATOM     14  N   UNL     1      33.844  -4.584  52.339  0.00  0.00    -0.329 N 
ATOM     15  N   UNL     1      34.050  -4.358  49.942  0.00  0.00    -0.196 NA
ATOM     16  C   UNL     1      33.554  -4.603  48.706  0.00  0.00    +0.171 A 
ATOM     17  H   UNL     1      31.660  -5.889  51.672  0.00  0.00    +0.172 HD
ATOM     18  H   UNL     1      34.731  -4.052  52.480  0.00  0.00    +0.145 HD
ATOM     19  H   UNL     1      33.327  -4.935  53.175  0.00  0.00    +0.145 HD
ENDBRANCH   5   6
BRANCH   3  20
ATOM     20  O   UNL     1      38.438  -3.096  47.113  0.00  0.00    -0.386 OA
ATOM     21  H   UNL     1      38.892  -3.427  47.932  0.00  0.00    +0.210 HD
ENDBRANCH   3  20
BRANCH   4  22
ATOM     22  O   UNL     1      36.953  -4.368  48.984  0.00  0.00    -0.385 OA
ATOM     23  H   UNL     1      36.762  -5.216  49.463  0.00  0.00    +0.210 HD
ENDBRANCH   4  22
BRANCH   1  24
ATOM     24  C   UNL     1      36.564  -4.718  44.392  0.00  0.00    +0.206 C 
BRANCH  24  25
ATOM     25  O   UNL     1      35.319  -4.549  43.756  0.00  0.00    -0.284 OA
BRANCH  25  26
ATOM     26  P   UNL     1      35.592  -3.984  42.169  0.00  0.00    +0.472 P 
ATOM     27  O   UNL     1      35.154  -5.030  41.166  0.00  0.00    -0.228 OA
BRANCH  26  28
ATOM     28  O   UNL     1      37.230  -3.617  41.941  0.00  0.00    -0.303 OA
ATOM     29  H   UNL     1      37.694  -4.009  42.723  0.00  0.00    +0.222 HD
ENDBRANCH  26  28
BRANCH  26  30
ATOM     30  O   UNL     1      34.682  -2.578  41.928  0.00  0.00    -0.303 OA
ATOM     31  H   UNL     1      34.640  -2.148  42.819  0.00  0.00    +0.222 HD
ENDBRANCH  26  30
ENDBRANCH  25  26
ENDBRANCH  24  25
ENDBRANCH   1  24
TORSDOF 8
ENDMDL
