MODEL 18
REMARK VINA RESULT:    -6.010      5.055      7.096
REMARK INTER + INTRA:          -9.068
REMARK INTER:                  -8.182
REMARK INTRA:                  -0.886
REMARK UNBOUND:                -0.951
REMARK  Name = 5GP
REMARK  8 active torsions:
REMARK  status: ('A' for Active; 'I' for Inactive)
REMARK    1  A    between atoms: P_1  and  O_3
REMARK    2  A    between atoms: P_1  and  O_4
REMARK    3  A    between atoms: P_1  and  O_5
REMARK    4  A    between atoms: O_5  and  C_6
REMARK    5  A    between atoms: C_6  and  C_7
REMARK    6  A    between atoms: C_9  and  O_10
REMARK    7  A    between atoms: C_11  and  O_12
REMARK    8  A    between atoms: C_13  and  N_14
REMARK                            x       y       z     vdW  Elec       q    Type
REMARK                         _______ _______ _______ _____ _____    ______ ____
ROOT
ATOM      1  C   UNL     1      28.359  -0.336  50.752  0.00  0.00    +0.178 C 
ATOM      2  O   UNL     1      29.275  -1.386  50.997  0.00  0.00    -0.346 OA
ATOM      3  C   UNL     1      28.908   0.562  49.634  0.00  0.00    +0.178 C 
ATOM      4  C   UNL     1      29.852  -0.368  48.909  0.00  0.00    +0.195 C 
ATOM      5  C   UNL     1      30.281  -1.342  50.006  0.00  0.00    +0.253 C 
ENDROOT
BRANCH   5   6
ATOM      6  N   UNL     1      30.502  -2.678  49.451  0.00  0.00    -0.285 N 
ATOM      7  C   UNL     1      29.987  -3.211  48.311  0.00  0.00    +0.203 A 
ATOM      8  N   UNL     1      30.480  -4.448  48.024  0.00  0.00    -0.229 NA
ATOM      9  C   UNL     1      31.342  -4.666  49.035  0.00  0.00    +0.172 A 
ATOM     10  C   UNL     1      32.169  -5.754  49.270  0.00  0.00    +0.280 A 
ATOM     11  O   UNL     1      32.173  -6.748  48.496  0.00  0.00    -0.265 OA
ATOM     12  N   UNL     1      32.985  -5.714  50.368  0.00  0.00    -0.293 N 
ATOM     13  C   UNL     1      32.991  -4.625  51.209  0.00  0.00    +0.195 A 
ATOM     14  N   UNL     1      33.855  -4.601  52.345  0.00  0.00    -0.329 N 
ATOM     15  N   UNL     1      32.171  -3.557  50.962  0.00  0.00    -0.196 NA
ATOM     16  C   UNL     1      31.361  -3.612  49.878  0.00  0.00    +0.171 A 
ATOM     17  H   UNL     1      33.617  -6.523  50.565  0.00  0.00    +0.172 HD
ATOM     18  H   UNL     1      33.862  -3.776  52.984  0.00  0.00    +0.145 HD
ATOM     19  H   UNL     1      34.488  -5.405  52.551  0.00  0.00    +0.145 HD
ENDBRANCH   5   6
BRANCH   3  20
ATOM     20  O   UNL     1      29.567   1.692  50.161  0.00  0.00    -0.386 OA
ATOM     21  H   UNL     1      28.906   2.427  50.249  0.00  0.00    +0.210 HD
ENDBRANCH   3  20
BRANCH   4  22
ATOM     22  O   UNL     1      30.928   0.294  48.285  0.00  0.00    -0.385 OA
ATOM     23  H   UNL     1      30.602   1.152  47.910  0.00  0.00    +0.210 HD
ENDBRANCH   4  22
BRANCH   1  24
ATOM     24  C   UNL     1      26.995  -0.932  50.381  0.00  0.00    +0.206 C 
BRANCH  24  25
ATOM     25  O   UNL     1      26.051  -0.570  51.361  0.00  0.00    -0.284 OA
BRANCH  25  26
ATOM     26  P   UNL     1      25.930  -1.840  52.494  0.00  0.00    +0.472 P 
ATOM     27  O   UNL     1      26.298  -1.338  53.873  0.00  0.00    -0.228 OA
BRANCH  26  28
ATOM     28  O   UNL     1      26.945  -3.125  52.059  0.00  0.00    -0.303 OA
ATOM     29  H   UNL     1      26.436  -3.639  51.382  0.00  0.00    +0.222 HD
ENDBRANCH  26  28
BRANCH  26  30
ATOM     30  O   UNL     1      24.332  -2.396  52.520  0.00  0.00    -0.303 OA
ATOM     31  H   UNL     1      24.056  -2.416  51.569  0.00  0.00    +0.222 HD
ENDBRANCH  26  30
ENDBRANCH  25  26
ENDBRANCH  24  25
ENDBRANCH   1  24
TORSDOF 8
ENDMDL
