MODEL 2
REMARK VINA RESULT:    -6.744      2.280      3.393
REMARK INTER + INTRA:         -10.060
REMARK INTER:                  -9.108
REMARK INTRA:                  -0.952
REMARK UNBOUND:                -0.951
REMARK  Name = 5GP
REMARK  8 active torsions:
REMARK  status: ('A' for Active; 'I' for Inactive)
REMARK    1  A    between atoms: P_1  and  O_3
REMARK    2  A    between atoms: P_1  and  O_4
REMARK    3  A    between atoms: P_1  and  O_5
REMARK    4  A    between atoms: O_5  and  C_6
REMARK    5  A    between atoms: C_6  and  C_7
REMARK    6  A    between atoms: C_9  and  O_10
REMARK    7  A    between atoms: C_11  and  O_12
REMARK    8  A    between atoms: C_13  and  N_14
REMARK                            x       y       z     vdW  Elec       q    Type
REMARK                         _______ _______ _______ _____ _____    ______ ____
ROOT
ATOM      1  C   UNL     1      21.956  -3.489  54.464  0.00  0.00    +0.178 C 
ATOM      2  O   UNL     1      21.303  -2.854  53.381  0.00  0.00    -0.346 OA
ATOM      3  C   UNL     1      22.668  -4.750  53.954  0.00  0.00    +0.178 C 
ATOM      4  C   UNL     1      22.852  -4.445  52.486  0.00  0.00    +0.195 C 
ATOM      5  C   UNL     1      21.687  -3.503  52.185  0.00  0.00    +0.253 C 
ENDROOT
BRANCH   5   6
ATOM      6  N   UNL     1      22.071  -2.515  51.176  0.00  0.00    -0.285 N 
ATOM      7  C   UNL     1      21.318  -2.015  50.159  0.00  0.00    +0.203 A 
ATOM      8  N   UNL     1      21.943  -1.026  49.461  0.00  0.00    -0.229 NA
ATOM      9  C   UNL     1      23.125  -0.918  50.096  0.00  0.00    +0.172 A 
ATOM     10  C   UNL     1      24.180  -0.050  49.853  0.00  0.00    +0.280 A 
ATOM     11  O   UNL     1      24.135   0.782  48.907  0.00  0.00    -0.265 OA
ATOM     12  N   UNL     1      25.272  -0.123  50.674  0.00  0.00    -0.293 N 
ATOM     13  C   UNL     1      25.320  -1.022  51.714  0.00  0.00    +0.195 A 
ATOM     14  N   UNL     1      26.466  -1.077  52.564  0.00  0.00    -0.329 N 
ATOM     15  N   UNL     1      24.270  -1.870  51.944  0.00  0.00    -0.196 NA
ATOM     16  C   UNL     1      23.198  -1.796  51.119  0.00  0.00    +0.171 A 
ATOM     17  H   UNL     1      26.079   0.521  50.510  0.00  0.00    +0.172 HD
ATOM     18  H   UNL     1      26.505  -1.757  53.354  0.00  0.00    +0.145 HD
ATOM     19  H   UNL     1      27.277  -0.439  52.406  0.00  0.00    +0.145 HD
ENDBRANCH   5   6
BRANCH   3  20
ATOM     20  O   UNL     1      21.886  -5.904  54.168  0.00  0.00    -0.386 OA
ATOM     21  H   UNL     1      22.318  -6.448  54.877  0.00  0.00    +0.210 HD
ENDBRANCH   3  20
BRANCH   4  22
ATOM     22  O   UNL     1      22.878  -5.593  51.670  0.00  0.00    -0.385 OA
ATOM     23  H   UNL     1      22.933  -6.397  52.249  0.00  0.00    +0.210 HD
ENDBRANCH   4  22
BRANCH   1  24
ATOM     24  C   UNL     1      22.940  -2.504  55.107  0.00  0.00    +0.206 C 
BRANCH  24  25
ATOM     25  O   UNL     1      24.182  -3.144  55.286  0.00  0.00    -0.284 OA
BRANCH  25  26
ATOM     26  P   UNL     1      25.312  -1.992  55.842  0.00  0.00    +0.472 P 
ATOM     27  O   UNL     1      24.959  -0.621  55.305  0.00  0.00    -0.228 OA
BRANCH  26  28
ATOM     28  O   UNL     1      26.879  -2.414  55.357  0.00  0.00    -0.303 OA
ATOM     29  H   UNL     1      27.021  -3.330  55.707  0.00  0.00    +0.222 HD
ENDBRANCH  26  28
BRANCH  26  30
ATOM     30  O   UNL     1      25.260  -1.949  57.532  0.00  0.00    -0.303 OA
ATOM     31  H   UNL     1      24.303  -2.066  57.759  0.00  0.00    +0.222 HD
ENDBRANCH  26  30
ENDBRANCH  25  26
ENDBRANCH  24  25
ENDBRANCH   1  24
TORSDOF 8
ENDMDL
