MODEL 6
REMARK VINA RESULT:    -6.529      6.428      8.485
REMARK INTER + INTRA:          -9.769
REMARK INTER:                  -9.142
REMARK INTRA:                  -0.627
REMARK UNBOUND:                -0.951
REMARK  Name = 5GP
REMARK  8 active torsions:
REMARK  status: ('A' for Active; 'I' for Inactive)
REMARK    1  A    between atoms: P_1  and  O_3
REMARK    2  A    between atoms: P_1  and  O_4
REMARK    3  A    between atoms: P_1  and  O_5
REMARK    4  A    between atoms: O_5  and  C_6
REMARK    5  A    between atoms: C_6  and  C_7
REMARK    6  A    between atoms: C_9  and  O_10
REMARK    7  A    between atoms: C_11  and  O_12
REMARK    8  A    between atoms: C_13  and  N_14
REMARK                            x       y       z     vdW  Elec       q    Type
REMARK                         _______ _______ _______ _____ _____    ______ ____
ROOT
ATOM      1  C   UNL     1      33.134  -3.684  49.766  0.00  0.00    +0.178 C 
ATOM      2  O   UNL     1      32.361  -2.516  49.969  0.00  0.00    -0.346 OA
ATOM      3  C   UNL     1      32.372  -4.896  50.321  0.00  0.00    +0.178 C 
ATOM      4  C   UNL     1      30.940  -4.415  50.298  0.00  0.00    +0.195 C 
ATOM      5  C   UNL     1      31.086  -2.901  50.445  0.00  0.00    +0.253 C 
ENDROOT
BRANCH   5   6
ATOM      6  N   UNL     1      30.038  -2.206  49.697  0.00  0.00    -0.285 N 
ATOM      7  C   UNL     1      29.095  -2.741  48.876  0.00  0.00    +0.203 A 
ATOM      8  N   UNL     1      28.197  -1.826  48.417  0.00  0.00    -0.229 NA
ATOM      9  C   UNL     1      28.614  -0.685  48.999  0.00  0.00    +0.172 A 
ATOM     10  C   UNL     1      28.072   0.590  48.928  0.00  0.00    +0.280 A 
ATOM     11  O   UNL     1      27.054   0.827  48.224  0.00  0.00    -0.265 OA
ATOM     12  N   UNL     1      28.675   1.584  49.650  0.00  0.00    -0.293 N 
ATOM     13  C   UNL     1      29.779   1.326  50.429  0.00  0.00    +0.195 A 
ATOM     14  N   UNL     1      30.389   2.376  51.179  0.00  0.00    -0.329 N 
ATOM     15  N   UNL     1      30.301   0.062  50.491  0.00  0.00    -0.196 NA
ATOM     16  C   UNL     1      29.702  -0.912  49.765  0.00  0.00    +0.171 A 
ATOM     17  H   UNL     1      28.284   2.552  49.611  0.00  0.00    +0.172 HD
ATOM     18  H   UNL     1      31.226   2.183  51.771  0.00  0.00    +0.145 HD
ATOM     19  H   UNL     1      30.007   3.347  51.146  0.00  0.00    +0.145 HD
ENDBRANCH   5   6
BRANCH   3  20
ATOM     20  O   UNL     1      32.806  -5.223  51.623  0.00  0.00    -0.386 OA
ATOM     21  H   UNL     1      32.778  -6.210  51.724  0.00  0.00    +0.210 HD
ENDBRANCH   3  20
BRANCH   4  22
ATOM     22  O   UNL     1      30.129  -5.005  51.288  0.00  0.00    -0.385 OA
ATOM     23  H   UNL     1      29.954  -5.948  51.037  0.00  0.00    +0.210 HD
ENDBRANCH   4  22
BRANCH   1  24
ATOM     24  C   UNL     1      33.430  -3.840  48.269  0.00  0.00    +0.206 C 
BRANCH  24  25
ATOM     25  O   UNL     1      34.161  -5.026  48.064  0.00  0.00    -0.284 OA
BRANCH  25  26
ATOM     26  P   UNL     1      35.797  -4.618  47.803  0.00  0.00    +0.472 P 
ATOM     27  O   UNL     1      36.527  -5.786  47.176  0.00  0.00    -0.228 OA
BRANCH  26  28
ATOM     28  O   UNL     1      36.544  -4.188  49.262  0.00  0.00    -0.303 OA
ATOM     29  H   UNL     1      35.802  -3.932  49.867  0.00  0.00    +0.222 HD
ENDBRANCH  26  28
BRANCH  26  30
ATOM     30  O   UNL     1      35.867  -3.296  46.749  0.00  0.00    -0.303 OA
ATOM     31  H   UNL     1      34.985  -2.855  46.837  0.00  0.00    +0.222 HD
ENDBRANCH  26  30
ENDBRANCH  25  26
ENDBRANCH  24  25
ENDBRANCH   1  24
TORSDOF 8
ENDMDL
