MODEL 11
REMARK VINA RESULT:    -6.279      5.113      7.232
REMARK INTER + INTRA:          -9.431
REMARK INTER:                  -8.859
REMARK INTRA:                  -0.572
REMARK UNBOUND:                -0.951
REMARK  Name = 5GP
REMARK  8 active torsions:
REMARK  status: ('A' for Active; 'I' for Inactive)
REMARK    1  A    between atoms: P_1  and  O_3
REMARK    2  A    between atoms: P_1  and  O_4
REMARK    3  A    between atoms: P_1  and  O_5
REMARK    4  A    between atoms: O_5  and  C_6
REMARK    5  A    between atoms: C_6  and  C_7
REMARK    6  A    between atoms: C_9  and  O_10
REMARK    7  A    between atoms: C_11  and  O_12
REMARK    8  A    between atoms: C_13  and  N_14
REMARK                            x       y       z     vdW  Elec       q    Type
REMARK                         _______ _______ _______ _____ _____    ______ ____
ROOT
ATOM      1  C   UNL     1      30.177  -1.407  50.614  0.00  0.00    +0.178 C 
ATOM      2  O   UNL     1      30.542  -0.050  50.447  0.00  0.00    -0.346 OA
ATOM      3  C   UNL     1      28.663  -1.551  50.405  0.00  0.00    +0.178 C 
ATOM      4  C   UNL     1      28.338  -0.341  49.561  0.00  0.00    +0.195 C 
ATOM      5  C   UNL     1      29.417   0.660  49.970  0.00  0.00    +0.253 C 
ENDROOT
BRANCH   5   6
ATOM      6  N   UNL     1      29.797   1.502  48.834  0.00  0.00    -0.285 N 
ATOM      7  C   UNL     1      29.599   1.266  47.510  0.00  0.00    +0.203 A 
ATOM      8  N   UNL     1      29.978   2.306  46.714  0.00  0.00    -0.229 NA
ATOM      9  C   UNL     1      30.414   3.216  47.606  0.00  0.00    +0.172 A 
ATOM     10  C   UNL     1      30.901   4.497  47.391  0.00  0.00    +0.280 A 
ATOM     11  O   UNL     1      31.014   4.964  46.226  0.00  0.00    -0.265 OA
ATOM     12  N   UNL     1      31.252   5.241  48.484  0.00  0.00    -0.293 N 
ATOM     13  C   UNL     1      31.120   4.738  49.758  0.00  0.00    +0.195 A 
ATOM     14  N   UNL     1      31.486   5.533  50.885  0.00  0.00    -0.329 N 
ATOM     15  N   UNL     1      30.635   3.473  49.954  0.00  0.00    -0.196 NA
ATOM     16  C   UNL     1      30.299   2.742  48.864  0.00  0.00    +0.171 A 
ATOM     17  H   UNL     1      31.622   6.209  48.346  0.00  0.00    +0.172 HD
ATOM     18  H   UNL     1      31.386   5.155  51.852  0.00  0.00    +0.145 HD
ATOM     19  H   UNL     1      31.858   6.500  50.757  0.00  0.00    +0.145 HD
ENDBRANCH   5   6
BRANCH   3  20
ATOM     20  O   UNL     1      27.972  -1.548  51.634  0.00  0.00    -0.386 OA
ATOM     21  H   UNL     1      28.016  -2.462  52.020  0.00  0.00    +0.210 HD
ENDBRANCH   3  20
BRANCH   4  22
ATOM     22  O   UNL     1      27.024   0.136  49.740  0.00  0.00    -0.385 OA
ATOM     23  H   UNL     1      26.454  -0.212  49.006  0.00  0.00    +0.210 HD
ENDBRANCH   4  22
BRANCH   1  24
ATOM     24  C   UNL     1      30.970  -2.269  49.623  0.00  0.00    +0.206 C 
BRANCH  24  25
ATOM     25  O   UNL     1      32.151  -2.717  50.244  0.00  0.00    -0.284 OA
BRANCH  25  26
ATOM     26  P   UNL     1      31.959  -4.363  50.653  0.00  0.00    +0.472 P 
ATOM     27  O   UNL     1      32.939  -4.742  51.743  0.00  0.00    -0.228 OA
BRANCH  26  28
ATOM     28  O   UNL     1      32.200  -5.346  49.294  0.00  0.00    -0.303 OA
ATOM     29  H   UNL     1      31.291  -5.608  49.000  0.00  0.00    +0.222 HD
ENDBRANCH  26  28
BRANCH  26  30
ATOM     30  O   UNL     1      30.384  -4.602  51.223  0.00  0.00    -0.303 OA
ATOM     31  H   UNL     1      30.457  -4.526  52.208  0.00  0.00    +0.222 HD
ENDBRANCH  26  30
ENDBRANCH  25  26
ENDBRANCH  24  25
ENDBRANCH   1  24
TORSDOF 8
ENDMDL
