MODEL 17
REMARK VINA RESULT:    -6.094      4.221      6.820
REMARK INTER + INTRA:          -9.183
REMARK INTER:                  -8.588
REMARK INTRA:                  -0.594
REMARK UNBOUND:                -0.951
REMARK  Name = 5GP
REMARK  8 active torsions:
REMARK  status: ('A' for Active; 'I' for Inactive)
REMARK    1  A    between atoms: P_1  and  O_3
REMARK    2  A    between atoms: P_1  and  O_4
REMARK    3  A    between atoms: P_1  and  O_5
REMARK    4  A    between atoms: O_5  and  C_6
REMARK    5  A    between atoms: C_6  and  C_7
REMARK    6  A    between atoms: C_9  and  O_10
REMARK    7  A    between atoms: C_11  and  O_12
REMARK    8  A    between atoms: C_13  and  N_14
REMARK                            x       y       z     vdW  Elec       q    Type
REMARK                         _______ _______ _______ _____ _____    ______ ____
ROOT
ATOM      1  C   UNL     1      29.836   0.473  50.471  0.00  0.00    +0.178 C 
ATOM      2  O   UNL     1      28.728   0.059  51.248  0.00  0.00    -0.346 OA
ATOM      3  C   UNL     1      30.260  -0.675  49.544  0.00  0.00    +0.178 C 
ATOM      4  C   UNL     1      28.994  -1.492  49.444  0.00  0.00    +0.195 C 
ATOM      5  C   UNL     1      28.291  -1.197  50.769  0.00  0.00    +0.253 C 
ENDROOT
BRANCH   5   6
ATOM      6  N   UNL     1      26.838  -1.192  50.592  0.00  0.00    -0.285 N 
ATOM      7  C   UNL     1      26.132  -1.229  49.430  0.00  0.00    +0.203 A 
ATOM      8  N   UNL     1      24.786  -1.321  49.620  0.00  0.00    -0.229 NA
ATOM      9  C   UNL     1      24.678  -1.352  50.962  0.00  0.00    +0.172 A 
ATOM     10  C   UNL     1      23.545  -1.468  51.752  0.00  0.00    +0.280 A 
ATOM     11  O   UNL     1      22.396  -1.538  51.238  0.00  0.00    -0.265 OA
ATOM     12  N   UNL     1      23.711  -1.509  53.110  0.00  0.00    -0.293 N 
ATOM     13  C   UNL     1      24.964  -1.444  53.674  0.00  0.00    +0.195 A 
ATOM     14  N   UNL     1      25.116  -1.494  55.093  0.00  0.00    -0.329 N 
ATOM     15  N   UNL     1      26.074  -1.332  52.881  0.00  0.00    -0.196 NA
ATOM     16  C   UNL     1      25.897  -1.283  51.539  0.00  0.00    +0.171 A 
ATOM     17  H   UNL     1      22.871  -1.596  53.726  0.00  0.00    +0.172 HD
ATOM     18  H   UNL     1      26.065  -1.447  55.523  0.00  0.00    +0.145 HD
ATOM     19  H   UNL     1      24.283  -1.580  55.715  0.00  0.00    +0.145 HD
ENDBRANCH   5   6
BRANCH   3  20
ATOM     20  O   UNL     1      31.330  -1.410  50.094  0.00  0.00    -0.386 OA
ATOM     21  H   UNL     1      31.871  -0.800  50.662  0.00  0.00    +0.210 HD
ENDBRANCH   3  20
BRANCH   4  22
ATOM     22  O   UNL     1      29.223  -2.864  49.217  0.00  0.00    -0.385 OA
ATOM     23  H   UNL     1      29.463  -2.995  48.263  0.00  0.00    +0.210 HD
ENDBRANCH   4  22
BRANCH   1  24
ATOM     24  C   UNL     1      29.454   1.730  49.678  0.00  0.00    +0.206 C 
BRANCH  24  25
ATOM     25  O   UNL     1      30.324   2.779  50.029  0.00  0.00    -0.284 OA
BRANCH  25  26
ATOM     26  P   UNL     1      30.400   3.881  48.729  0.00  0.00    +0.472 P 
ATOM     27  O   UNL     1      30.069   3.174  47.432  0.00  0.00    -0.228 OA
BRANCH  26  28
ATOM     28  O   UNL     1      31.941   4.578  48.627  0.00  0.00    -0.303 OA
ATOM     29  H   UNL     1      32.549   3.830  48.395  0.00  0.00    +0.222 HD
ENDBRANCH  26  28
BRANCH  26  30
ATOM     30  O   UNL     1      29.267   5.110  48.989  0.00  0.00    -0.303 OA
ATOM     31  H   UNL     1      29.685   5.924  48.611  0.00  0.00    +0.222 HD
ENDBRANCH  26  30
ENDBRANCH  25  26
ENDBRANCH  24  25
ENDBRANCH   1  24
TORSDOF 8
ENDMDL
