MODEL 14
REMARK VINA RESULT:    -4.576      9.860     11.946
REMARK INTER + INTRA:          -5.559
REMARK INTER:                  -5.305
REMARK INTRA:                  -0.254
REMARK UNBOUND:                -0.047
REMARK  Name = ALL
REMARK  6 active torsions:
REMARK  status: ('A' for Active; 'I' for Inactive)
REMARK    1  A    between atoms: C_1  and  O_7
REMARK    2  A    between atoms: C_2  and  O_8
REMARK    3  A    between atoms: C_3  and  O_9
REMARK    4  A    between atoms: C_4  and  O_10
REMARK    5  A    between atoms: C_5  and  C_6
REMARK    6  A    between atoms: C_6  and  O_12
REMARK                            x       y       z     vdW  Elec       q    Type
REMARK                         _______ _______ _______ _____ _____    ______ ____
ROOT
ATOM      1  C   UNL     1       9.265  21.993  23.344  0.00  0.00    +0.279 C 
ATOM      2  C   UNL     1       8.139  20.984  23.038  0.00  0.00    +0.201 C 
ATOM      3  C   UNL     1       6.950  21.682  22.346  0.00  0.00    +0.179 C 
ATOM      4  C   UNL     1       6.572  22.994  23.071  0.00  0.00    +0.177 C 
ATOM      5  C   UNL     1       7.835  23.836  23.387  0.00  0.00    +0.178 C 
ATOM      6  O   UNL     1       8.764  23.061  24.128  0.00  0.00    -0.341 OA
ENDROOT
BRANCH   1   7
ATOM      7  O   UNL     1      10.272  21.339  24.068  0.00  0.00    -0.365 OA
ATOM      8  H   UNL     1      10.106  21.541  25.026  0.00  0.00    +0.213 HD
ENDBRANCH   1   7
BRANCH   2   9
ATOM      9  O   UNL     1       8.618  19.949  22.218  0.00  0.00    -0.384 OA
ATOM     10  H   UNL     1       8.598  19.118  22.760  0.00  0.00    +0.210 HD
ENDBRANCH   2   9
BRANCH   3  11
ATOM     11  O   UNL     1       7.194  21.894  20.975  0.00  0.00    -0.386 OA
ATOM     12  H   UNL     1       7.589  21.069  20.596  0.00  0.00    +0.210 HD
ENDBRANCH   3  11
BRANCH   4  13
ATOM     13  O   UNL     1       5.679  23.738  22.281  0.00  0.00    -0.386 OA
ATOM     14  H   UNL     1       5.298  24.443  22.868  0.00  0.00    +0.210 HD
ENDBRANCH   4  13
BRANCH   5  15
ATOM     15  C   UNL     1       7.484  25.075  24.223  0.00  0.00    +0.190 C 
BRANCH  15  16
ATOM     16  O   UNL     1       6.285  24.874  24.920  0.00  0.00    -0.392 OA
ATOM     17  H   UNL     1       5.637  24.521  24.256  0.00  0.00    +0.210 HD
ENDBRANCH  15  16
ENDBRANCH   5  15
TORSDOF 6
ENDMDL
