MODEL 17
REMARK VINA RESULT:    -4.552      4.349      5.895
REMARK INTER + INTRA:          -5.531
REMARK INTER:                  -5.281
REMARK INTRA:                  -0.250
REMARK UNBOUND:                -0.047
REMARK  Name = ALL
REMARK  6 active torsions:
REMARK  status: ('A' for Active; 'I' for Inactive)
REMARK    1  A    between atoms: C_1  and  O_7
REMARK    2  A    between atoms: C_2  and  O_8
REMARK    3  A    between atoms: C_3  and  O_9
REMARK    4  A    between atoms: C_4  and  O_10
REMARK    5  A    between atoms: C_5  and  C_6
REMARK    6  A    between atoms: C_6  and  O_12
REMARK                            x       y       z     vdW  Elec       q    Type
REMARK                         _______ _______ _______ _____ _____    ______ ____
ROOT
ATOM      1  C   UNL     1       8.108  18.652  18.947  0.00  0.00    +0.279 C 
ATOM      2  C   UNL     1       8.009  17.543  17.880  0.00  0.00    +0.201 C 
ATOM      3  C   UNL     1       7.473  16.234  18.496  0.00  0.00    +0.179 C 
ATOM      4  C   UNL     1       8.195  15.904  19.823  0.00  0.00    +0.177 C 
ATOM      5  C   UNL     1       8.290  17.158  20.729  0.00  0.00    +0.178 C 
ATOM      6  O   UNL     1       8.915  18.220  20.027  0.00  0.00    -0.341 OA
ENDROOT
BRANCH   1   7
ATOM      7  O   UNL     1       8.700  19.783  18.369  0.00  0.00    -0.365 OA
ATOM      8  H   UNL     1       9.309  19.450  17.659  0.00  0.00    +0.213 HD
ENDBRANCH   1   7
BRANCH   2   9
ATOM      9  O   UNL     1       7.168  17.946  16.830  0.00  0.00    -0.384 OA
ATOM     10  H   UNL     1       7.491  18.833  16.524  0.00  0.00    +0.210 HD
ENDBRANCH   2   9
BRANCH   3  11
ATOM     11  O   UNL     1       6.074  16.267  18.657  0.00  0.00    -0.386 OA
ATOM     12  H   UNL     1       5.683  16.765  17.896  0.00  0.00    +0.210 HD
ENDBRANCH   3  11
BRANCH   4  13
ATOM     13  O   UNL     1       7.517  14.872  20.493  0.00  0.00    -0.386 OA
ATOM     14  H   UNL     1       7.046  14.341  19.798  0.00  0.00    +0.210 HD
ENDBRANCH   4  13
BRANCH   5  15
ATOM     15  C   UNL     1       9.120  16.874  21.989  0.00  0.00    +0.190 C 
BRANCH  15  16
ATOM     16  O   UNL     1       9.910  15.731  21.809  0.00  0.00    -0.392 OA
ATOM     17  H   UNL     1      10.689  15.837  22.415  0.00  0.00    +0.210 HD
ENDBRANCH  15  16
ENDBRANCH   5  15
TORSDOF 6
ENDMDL
