MODEL 12
REMARK VINA RESULT:    -4.606      6.904      8.270
REMARK INTER + INTRA:          -5.596
REMARK INTER:                  -5.559
REMARK INTRA:                  -0.037
REMARK UNBOUND:                -0.047
REMARK  Name = ALL
REMARK  6 active torsions:
REMARK  status: ('A' for Active; 'I' for Inactive)
REMARK    1  A    between atoms: C_1  and  O_7
REMARK    2  A    between atoms: C_2  and  O_8
REMARK    3  A    between atoms: C_3  and  O_9
REMARK    4  A    between atoms: C_4  and  O_10
REMARK    5  A    between atoms: C_5  and  C_6
REMARK    6  A    between atoms: C_6  and  O_12
REMARK                            x       y       z     vdW  Elec       q    Type
REMARK                         _______ _______ _______ _____ _____    ______ ____
ROOT
ATOM      1  C   UNL     1       6.275  19.892  21.191  0.00  0.00    +0.279 C 
ATOM      2  C   UNL     1       6.489  21.113  22.108  0.00  0.00    +0.201 C 
ATOM      3  C   UNL     1       7.906  21.101  22.717  0.00  0.00    +0.179 C 
ATOM      4  C   UNL     1       8.265  19.704  23.272  0.00  0.00    +0.177 C 
ATOM      5  C   UNL     1       7.891  18.592  22.259  0.00  0.00    +0.178 C 
ATOM      6  O   UNL     1       6.521  18.695  21.906  0.00  0.00    -0.341 OA
ENDROOT
BRANCH   1   7
ATOM      7  O   UNL     1       4.944  19.886  20.750  0.00  0.00    -0.365 OA
ATOM      8  H   UNL     1       4.562  20.768  20.997  0.00  0.00    +0.213 HD
ENDBRANCH   1   7
BRANCH   2   9
ATOM      9  O   UNL     1       6.297  22.305  21.390  0.00  0.00    -0.384 OA
ATOM     10  H   UNL     1       5.841  22.062  20.542  0.00  0.00    +0.210 HD
ENDBRANCH   2   9
BRANCH   3  11
ATOM     11  O   UNL     1       8.872  21.562  21.801  0.00  0.00    -0.386 OA
ATOM     12  H   UNL     1       9.712  21.058  21.952  0.00  0.00    +0.210 HD
ENDBRANCH   3  11
BRANCH   4  13
ATOM     13  O   UNL     1       9.636  19.645  23.573  0.00  0.00    -0.386 OA
ATOM     14  H   UNL     1       9.723  19.108  24.404  0.00  0.00    +0.210 HD
ENDBRANCH   4  13
BRANCH   5  15
ATOM     15  C   UNL     1       8.119  17.195  22.854  0.00  0.00    +0.190 C 
BRANCH  15  16
ATOM     16  O   UNL     1       7.872  16.206  21.893  0.00  0.00    -0.392 OA
ATOM     17  H   UNL     1       7.289  16.627  21.209  0.00  0.00    +0.210 HD
ENDBRANCH  15  16
ENDBRANCH   5  15
TORSDOF 6
ENDMDL
