MODEL 9
REMARK VINA RESULT:    -4.727      2.041      3.430
REMARK INTER + INTRA:          -5.741
REMARK INTER:                  -5.497
REMARK INTRA:                  -0.244
REMARK UNBOUND:                -0.047
REMARK  Name = ALL
REMARK  6 active torsions:
REMARK  status: ('A' for Active; 'I' for Inactive)
REMARK    1  A    between atoms: C_1  and  O_7
REMARK    2  A    between atoms: C_2  and  O_8
REMARK    3  A    between atoms: C_3  and  O_9
REMARK    4  A    between atoms: C_4  and  O_10
REMARK    5  A    between atoms: C_5  and  C_6
REMARK    6  A    between atoms: C_6  and  O_12
REMARK                            x       y       z     vdW  Elec       q    Type
REMARK                         _______ _______ _______ _____ _____    ______ ____
ROOT
ATOM      1  C   UNL     1       9.448  13.160  20.079  0.00  0.00    +0.279 C 
ATOM      2  C   UNL     1       8.056  13.595  19.578  0.00  0.00    +0.201 C 
ATOM      3  C   UNL     1       7.038  12.444  19.715  0.00  0.00    +0.179 C 
ATOM      4  C   UNL     1       7.620  11.115  19.180  0.00  0.00    +0.177 C 
ATOM      5  C   UNL     1       9.060  10.889  19.707  0.00  0.00    +0.178 C 
ATOM      6  O   UNL     1       9.877  12.003  19.383  0.00  0.00    -0.341 OA
ENDROOT
BRANCH   1   7
ATOM      7  O   UNL     1      10.360  14.195  19.833  0.00  0.00    -0.365 OA
ATOM      8  H   UNL     1       9.821  14.999  19.614  0.00  0.00    +0.213 HD
ENDBRANCH   1   7
BRANCH   2   9
ATOM      9  O   UNL     1       7.602  14.711  20.300  0.00  0.00    -0.384 OA
ATOM     10  H   UNL     1       7.369  14.392  21.210  0.00  0.00    +0.210 HD
ENDBRANCH   2   9
BRANCH   3  11
ATOM     11  O   UNL     1       6.571  12.314  21.038  0.00  0.00    -0.386 OA
ATOM     12  H   UNL     1       7.016  13.001  21.595  0.00  0.00    +0.210 HD
ENDBRANCH   3  11
BRANCH   4  13
ATOM     13  O   UNL     1       6.793  10.044  19.556  0.00  0.00    -0.386 OA
ATOM     14  H   UNL     1       5.896  10.226  19.169  0.00  0.00    +0.210 HD
ENDBRANCH   4  13
BRANCH   5  15
ATOM     15  C   UNL     1       9.695   9.642  19.076  0.00  0.00    +0.190 C 
BRANCH  15  16
ATOM     16  O   UNL     1       9.237   8.482  19.714  0.00  0.00    -0.392 OA
ATOM     17  H   UNL     1       8.250   8.486  19.616  0.00  0.00    +0.210 HD
ENDBRANCH  15  16
ENDBRANCH   5  15
TORSDOF 6
ENDMDL
