MODEL 11
REMARK VINA RESULT:    -4.657      2.692      4.359
REMARK INTER + INTRA:          -5.657
REMARK INTER:                  -5.413
REMARK INTRA:                  -0.244
REMARK UNBOUND:                -0.047
REMARK  Name = ALL
REMARK  6 active torsions:
REMARK  status: ('A' for Active; 'I' for Inactive)
REMARK    1  A    between atoms: C_1  and  O_7
REMARK    2  A    between atoms: C_2  and  O_8
REMARK    3  A    between atoms: C_3  and  O_9
REMARK    4  A    between atoms: C_4  and  O_10
REMARK    5  A    between atoms: C_5  and  C_6
REMARK    6  A    between atoms: C_6  and  O_12
REMARK                            x       y       z     vdW  Elec       q    Type
REMARK                         _______ _______ _______ _____ _____    ______ ____
ROOT
ATOM      1  C   UNL     1       7.208  13.664  18.364  0.00  0.00    +0.279 C 
ATOM      2  C   UNL     1       8.301  12.613  18.084  0.00  0.00    +0.201 C 
ATOM      3  C   UNL     1       9.190  12.400  19.327  0.00  0.00    +0.179 C 
ATOM      4  C   UNL     1       9.621  13.751  19.944  0.00  0.00    +0.177 C 
ATOM      5  C   UNL     1       8.416  14.718  20.059  0.00  0.00    +0.178 C 
ATOM      6  O   UNL     1       7.797  14.878  18.793  0.00  0.00    -0.341 OA
ENDROOT
BRANCH   1   7
ATOM      7  O   UNL     1       6.498  13.904  17.179  0.00  0.00    -0.365 OA
ATOM      8  H   UNL     1       7.118  14.386  16.572  0.00  0.00    +0.213 HD
ENDBRANCH   1   7
BRANCH   2   9
ATOM      9  O   UNL     1       7.720  11.390  17.708  0.00  0.00    -0.384 OA
ATOM     10  H   UNL     1       7.032  11.175  18.389  0.00  0.00    +0.210 HD
ENDBRANCH   2   9
BRANCH   3  11
ATOM     11  O   UNL     1       8.568  11.567  20.278  0.00  0.00    -0.386 OA
ATOM     12  H   UNL     1       9.247  11.292  20.944  0.00  0.00    +0.210 HD
ENDBRANCH   3  11
BRANCH   4  13
ATOM     13  O   UNL     1      10.196  13.538  21.208  0.00  0.00    -0.386 OA
ATOM     14  H   UNL     1      11.179  13.623  21.093  0.00  0.00    +0.210 HD
ENDBRANCH   4  13
BRANCH   5  15
ATOM     15  C   UNL     1       8.858  16.105  20.546  0.00  0.00    +0.190 C 
BRANCH  15  16
ATOM     16  O   UNL     1       9.057  16.099  21.933  0.00  0.00    -0.392 OA
ATOM     17  H   UNL     1       9.889  15.581  22.088  0.00  0.00    +0.210 HD
ENDBRANCH  15  16
ENDBRANCH   5  15
TORSDOF 6
ENDMDL
