MODEL 20
REMARK VINA RESULT:    -4.419      2.248      4.060
REMARK INTER + INTRA:          -5.370
REMARK INTER:                  -5.322
REMARK INTRA:                  -0.048
REMARK UNBOUND:                -0.047
REMARK  Name = ALL
REMARK  6 active torsions:
REMARK  status: ('A' for Active; 'I' for Inactive)
REMARK    1  A    between atoms: C_1  and  O_7
REMARK    2  A    between atoms: C_2  and  O_8
REMARK    3  A    between atoms: C_3  and  O_9
REMARK    4  A    between atoms: C_4  and  O_10
REMARK    5  A    between atoms: C_5  and  C_6
REMARK    6  A    between atoms: C_6  and  O_12
REMARK                            x       y       z     vdW  Elec       q    Type
REMARK                         _______ _______ _______ _____ _____    ______ ____
ROOT
ATOM      1  C   UNL     1       9.146  12.102  18.252  0.00  0.00    +0.279 C 
ATOM      2  C   UNL     1       7.626  11.885  18.394  0.00  0.00    +0.201 C 
ATOM      3  C   UNL     1       6.892  13.232  18.559  0.00  0.00    +0.179 C 
ATOM      4  C   UNL     1       7.598  14.130  19.600  0.00  0.00    +0.177 C 
ATOM      5  C   UNL     1       9.130  14.152  19.365  0.00  0.00    +0.178 C 
ATOM      6  O   UNL     1       9.641  12.829  19.362  0.00  0.00    -0.341 OA
ENDROOT
BRANCH   1   7
ATOM      7  O   UNL     1       9.779  10.851  18.216  0.00  0.00    -0.365 OA
ATOM      8  H   UNL     1      10.381  10.864  17.427  0.00  0.00    +0.213 HD
ENDBRANCH   1   7
BRANCH   2   9
ATOM      9  O   UNL     1       7.120  11.209  17.271  0.00  0.00    -0.384 OA
ATOM     10  H   UNL     1       6.710  11.894  16.681  0.00  0.00    +0.210 HD
ENDBRANCH   2   9
BRANCH   3  11
ATOM     11  O   UNL     1       6.728  13.892  17.325  0.00  0.00    -0.386 OA
ATOM     12  H   UNL     1       6.101  13.365  16.769  0.00  0.00    +0.210 HD
ENDBRANCH   3  11
BRANCH   4  13
ATOM     13  O   UNL     1       7.080  15.434  19.538  0.00  0.00    -0.386 OA
ATOM     14  H   UNL     1       7.231  15.844  20.430  0.00  0.00    +0.210 HD
ENDBRANCH   4  13
BRANCH   5  15
ATOM     15  C   UNL     1       9.853  14.932  20.472  0.00  0.00    +0.190 C 
BRANCH  15  16
ATOM     16  O   UNL     1      10.499  14.052  21.351  0.00  0.00    -0.392 OA
ATOM     17  H   UNL     1      10.217  14.320  22.264  0.00  0.00    +0.210 HD
ENDBRANCH  15  16
ENDBRANCH   5  15
TORSDOF 6
ENDMDL
