MODEL 8
REMARK VINA RESULT:    -4.797      1.455      2.927
REMARK INTER + INTRA:          -5.826
REMARK INTER:                  -5.582
REMARK INTRA:                  -0.244
REMARK UNBOUND:                -0.047
REMARK  Name = ALL
REMARK  6 active torsions:
REMARK  status: ('A' for Active; 'I' for Inactive)
REMARK    1  A    between atoms: C_1  and  O_7
REMARK    2  A    between atoms: C_2  and  O_8
REMARK    3  A    between atoms: C_3  and  O_9
REMARK    4  A    between atoms: C_4  and  O_10
REMARK    5  A    between atoms: C_5  and  C_6
REMARK    6  A    between atoms: C_6  and  O_12
REMARK                            x       y       z     vdW  Elec       q    Type
REMARK                         _______ _______ _______ _____ _____    ______ ____
ROOT
ATOM      1  C   UNL     1       7.623  14.379  17.970  0.00  0.00    +0.279 C 
ATOM      2  C   UNL     1       6.148  14.054  18.276  0.00  0.00    +0.201 C 
ATOM      3  C   UNL     1       6.039  12.951  19.349  0.00  0.00    +0.179 C 
ATOM      4  C   UNL     1       6.994  11.775  19.040  0.00  0.00    +0.177 C 
ATOM      5  C   UNL     1       8.404  12.291  18.657  0.00  0.00    +0.178 C 
ATOM      6  O   UNL     1       8.311  13.205  17.576  0.00  0.00    -0.341 OA
ENDROOT
BRANCH   1   7
ATOM      7  O   UNL     1       7.673  15.303  16.916  0.00  0.00    -0.365 OA
ATOM      8  H   UNL     1       7.965  14.797  16.113  0.00  0.00    +0.213 HD
ENDBRANCH   1   7
BRANCH   2   9
ATOM      9  O   UNL     1       5.473  15.205  18.716  0.00  0.00    -0.384 OA
ATOM     10  H   UNL     1       5.798  15.961  18.161  0.00  0.00    +0.210 HD
ENDBRANCH   2   9
BRANCH   3  11
ATOM     11  O   UNL     1       6.243  13.462  20.646  0.00  0.00    -0.386 OA
ATOM     12  H   UNL     1       7.051  13.035  21.027  0.00  0.00    +0.210 HD
ENDBRANCH   3  11
BRANCH   4  13
ATOM     13  O   UNL     1       7.076  10.920  20.152  0.00  0.00    -0.386 OA
ATOM     14  H   UNL     1       8.023  10.625  20.216  0.00  0.00    +0.210 HD
ENDBRANCH   4  13
BRANCH   5  15
ATOM     15  C   UNL     1       9.320  11.139  18.220  0.00  0.00    +0.190 C 
BRANCH  15  16
ATOM     16  O   UNL     1       9.898  10.520  19.337  0.00  0.00    -0.392 OA
ATOM     17  H   UNL     1       9.153  10.081  19.824  0.00  0.00    +0.210 HD
ENDBRANCH  15  16
ENDBRANCH   5  15
TORSDOF 6
ENDMDL
