MODEL 13
REMARK VINA RESULT:    -4.596      6.935      8.399
REMARK INTER + INTRA:          -5.584
REMARK INTER:                  -5.330
REMARK INTRA:                  -0.254
REMARK UNBOUND:                -0.047
REMARK  Name = ALL
REMARK  6 active torsions:
REMARK  status: ('A' for Active; 'I' for Inactive)
REMARK    1  A    between atoms: C_1  and  O_7
REMARK    2  A    between atoms: C_2  and  O_8
REMARK    3  A    between atoms: C_3  and  O_9
REMARK    4  A    between atoms: C_4  and  O_10
REMARK    5  A    between atoms: C_5  and  C_6
REMARK    6  A    between atoms: C_6  and  O_12
REMARK                            x       y       z     vdW  Elec       q    Type
REMARK                         _______ _______ _______ _____ _____    ______ ____
ROOT
ATOM      1  C   UNL     1       9.999  19.237  15.106  0.00  0.00    +0.279 C 
ATOM      2  C   UNL     1       8.713  18.873  14.336  0.00  0.00    +0.201 C 
ATOM      3  C   UNL     1       8.655  17.359  14.048  0.00  0.00    +0.179 C 
ATOM      4  C   UNL     1      10.003  16.843  13.495  0.00  0.00    +0.177 C 
ATOM      5  C   UNL     1      11.190  17.386  14.331  0.00  0.00    +0.178 C 
ATOM      6  O   UNL     1      11.139  18.803  14.385  0.00  0.00    -0.341 OA
ENDROOT
BRANCH   1   7
ATOM      7  O   UNL     1      10.062  20.630  15.247  0.00  0.00    -0.365 OA
ATOM      8  H   UNL     1      10.292  20.806  16.197  0.00  0.00    +0.213 HD
ENDBRANCH   1   7
BRANCH   2   9
ATOM      9  O   UNL     1       7.578  19.255  15.071  0.00  0.00    -0.384 OA
ATOM     10  H   UNL     1       6.785  18.992  14.536  0.00  0.00    +0.210 HD
ENDBRANCH   2   9
BRANCH   3  11
ATOM     11  O   UNL     1       8.240  16.628  15.178  0.00  0.00    -0.386 OA
ATOM     12  H   UNL     1       7.255  16.530  15.143  0.00  0.00    +0.210 HD
ENDBRANCH   3  11
BRANCH   4  13
ATOM     13  O   UNL     1      10.014  15.438  13.494  0.00  0.00    -0.386 OA
ATOM     14  H   UNL     1      10.481  15.155  14.325  0.00  0.00    +0.210 HD
ENDBRANCH   4  13
BRANCH   5  15
ATOM     15  C   UNL     1      12.537  16.989  13.711  0.00  0.00    +0.190 C 
BRANCH  15  16
ATOM     16  O   UNL     1      12.393  16.744  12.339  0.00  0.00    -0.392 OA
ATOM     17  H   UNL     1      11.417  16.731  12.163  0.00  0.00    +0.210 HD
ENDBRANCH  15  16
ENDBRANCH   5  15
TORSDOF 6
ENDMDL
