MODEL 5
REMARK VINA RESULT:    -4.848      2.226      3.968
REMARK INTER + INTRA:          -5.887
REMARK INTER:                  -5.634
REMARK INTRA:                  -0.253
REMARK UNBOUND:                -0.047
REMARK  Name = ALL
REMARK  6 active torsions:
REMARK  status: ('A' for Active; 'I' for Inactive)
REMARK    1  A    between atoms: C_1  and  O_7
REMARK    2  A    between atoms: C_2  and  O_8
REMARK    3  A    between atoms: C_3  and  O_9
REMARK    4  A    between atoms: C_4  and  O_10
REMARK    5  A    between atoms: C_5  and  C_6
REMARK    6  A    between atoms: C_6  and  O_12
REMARK                            x       y       z     vdW  Elec       q    Type
REMARK                         _______ _______ _______ _____ _____    ______ ____
ROOT
ATOM      1  C   UNL     1       8.920   9.908  19.526  0.00  0.00    +0.279 C 
ATOM      2  C   UNL     1       8.835  11.437  19.345  0.00  0.00    +0.201 C 
ATOM      3  C   UNL     1       7.376  11.924  19.457  0.00  0.00    +0.179 C 
ATOM      4  C   UNL     1       6.425  11.039  18.619  0.00  0.00    +0.177 C 
ATOM      5  C   UNL     1       6.718   9.535  18.852  0.00  0.00    +0.178 C 
ATOM      6  O   UNL     1       8.084   9.258  18.586  0.00  0.00    -0.341 OA
ENDROOT
BRANCH   1   7
ATOM      7  O   UNL     1      10.243   9.500  19.307  0.00  0.00    -0.365 OA
ATOM      8  H   UNL     1      10.323   8.588  19.690  0.00  0.00    +0.213 HD
ENDBRANCH   1   7
BRANCH   2   9
ATOM      9  O   UNL     1       9.623  12.089  20.308  0.00  0.00    -0.384 OA
ATOM     10  H   UNL     1       9.434  11.654  21.179  0.00  0.00    +0.210 HD
ENDBRANCH   2   9
BRANCH   3  11
ATOM     11  O   UNL     1       6.957  12.014  20.799  0.00  0.00    -0.386 OA
ATOM     12  H   UNL     1       6.973  12.967  21.069  0.00  0.00    +0.210 HD
ENDBRANCH   3  11
BRANCH   4  13
ATOM     13  O   UNL     1       5.089  11.328  18.945  0.00  0.00    -0.386 OA
ATOM     14  H   UNL     1       4.894  12.229  18.574  0.00  0.00    +0.210 HD
ENDBRANCH   4  13
BRANCH   5  15
ATOM     15  C   UNL     1       5.871   8.651  17.925  0.00  0.00    +0.190 C 
BRANCH  15  16
ATOM     16  O   UNL     1       5.436   9.383  16.812  0.00  0.00    -0.392 OA
ATOM     17  H   UNL     1       6.245   9.563  16.268  0.00  0.00    +0.210 HD
ENDBRANCH  15  16
ENDBRANCH   5  15
TORSDOF 6
ENDMDL
