MODEL 15
REMARK VINA RESULT:    -4.568      3.635      4.744
REMARK INTER + INTRA:          -5.550
REMARK INTER:                  -5.345
REMARK INTRA:                  -0.206
REMARK UNBOUND:                -0.047
REMARK  Name = ALL
REMARK  6 active torsions:
REMARK  status: ('A' for Active; 'I' for Inactive)
REMARK    1  A    between atoms: C_1  and  O_7
REMARK    2  A    between atoms: C_2  and  O_8
REMARK    3  A    between atoms: C_3  and  O_9
REMARK    4  A    between atoms: C_4  and  O_10
REMARK    5  A    between atoms: C_5  and  C_6
REMARK    6  A    between atoms: C_6  and  O_12
REMARK                            x       y       z     vdW  Elec       q    Type
REMARK                         _______ _______ _______ _____ _____    ______ ____
ROOT
ATOM      1  C   UNL     1       5.831   8.787  16.033  0.00  0.00    +0.279 C 
ATOM      2  C   UNL     1       4.646   8.597  17.001  0.00  0.00    +0.201 C 
ATOM      3  C   UNL     1       5.045   8.985  18.440  0.00  0.00    +0.179 C 
ATOM      4  C   UNL     1       6.407   8.367  18.829  0.00  0.00    +0.177 C 
ATOM      5  C   UNL     1       7.449   8.566  17.700  0.00  0.00    +0.178 C 
ATOM      6  O   UNL     1       6.950   8.043  16.479  0.00  0.00    -0.341 OA
ENDROOT
BRANCH   1   7
ATOM      7  O   UNL     1       5.458   8.320  14.765  0.00  0.00    -0.365 OA
ATOM      8  H   UNL     1       5.950   8.875  14.105  0.00  0.00    +0.213 HD
ENDBRANCH   1   7
BRANCH   2   9
ATOM      9  O   UNL     1       3.550   9.374  16.592  0.00  0.00    -0.384 OA
ATOM     10  H   UNL     1       3.896  10.283  16.397  0.00  0.00    +0.210 HD
ENDBRANCH   2   9
BRANCH   3  11
ATOM     11  O   UNL     1       5.032  10.381  18.628  0.00  0.00    -0.386 OA
ATOM     12  H   UNL     1       5.852  10.759  18.220  0.00  0.00    +0.210 HD
ENDBRANCH   3  11
BRANCH   4  13
ATOM     13  O   UNL     1       6.871   8.943  20.024  0.00  0.00    -0.386 OA
ATOM     14  H   UNL     1       6.156   9.554  20.343  0.00  0.00    +0.210 HD
ENDBRANCH   4  13
BRANCH   5  15
ATOM     15  C   UNL     1       8.764   7.841  18.019  0.00  0.00    +0.190 C 
BRANCH  15  16
ATOM     16  O   UNL     1       9.375   8.407  19.146  0.00  0.00    -0.392 OA
ATOM     17  H   UNL     1       9.591   9.344  18.901  0.00  0.00    +0.210 HD
ENDBRANCH  15  16
ENDBRANCH   5  15
TORSDOF 6
ENDMDL
