MODEL 7
REMARK VINA RESULT:    -4.817      2.434      3.753
REMARK INTER + INTRA:          -5.850
REMARK INTER:                  -5.605
REMARK INTRA:                  -0.245
REMARK UNBOUND:                -0.047
REMARK  Name = ALL
REMARK  6 active torsions:
REMARK  status: ('A' for Active; 'I' for Inactive)
REMARK    1  A    between atoms: C_1  and  O_7
REMARK    2  A    between atoms: C_2  and  O_8
REMARK    3  A    between atoms: C_3  and  O_9
REMARK    4  A    between atoms: C_4  and  O_10
REMARK    5  A    between atoms: C_5  and  C_6
REMARK    6  A    between atoms: C_6  and  O_12
REMARK                            x       y       z     vdW  Elec       q    Type
REMARK                         _______ _______ _______ _____ _____    ______ ____
ROOT
ATOM      1  C   UNL     1       6.942  15.593  18.943  0.00  0.00    +0.279 C 
ATOM      2  C   UNL     1       6.244  14.312  18.445  0.00  0.00    +0.201 C 
ATOM      3  C   UNL     1       6.602  13.107  19.340  0.00  0.00    +0.179 C 
ATOM      4  C   UNL     1       8.122  13.046  19.614  0.00  0.00    +0.177 C 
ATOM      5  C   UNL     1       8.671  14.442  20.007  0.00  0.00    +0.178 C 
ATOM      6  O   UNL     1       8.343  15.393  19.006  0.00  0.00    -0.341 OA
ENDROOT
BRANCH   1   7
ATOM      7  O   UNL     1       6.678  16.632  18.040  0.00  0.00    -0.365 OA
ATOM      8  H   UNL     1       5.694  16.645  17.906  0.00  0.00    +0.213 HD
ENDBRANCH   1   7
BRANCH   2   9
ATOM      9  O   UNL     1       4.851  14.487  18.429  0.00  0.00    -0.384 OA
ATOM     10  H   UNL     1       4.652  15.170  17.737  0.00  0.00    +0.210 HD
ENDBRANCH   2   9
BRANCH   3  11
ATOM     11  O   UNL     1       5.855  13.104  20.534  0.00  0.00    -0.386 OA
ATOM     12  H   UNL     1       5.631  12.166  20.761  0.00  0.00    +0.210 HD
ENDBRANCH   3  11
BRANCH   4  13
ATOM     13  O   UNL     1       8.388  12.117  20.634  0.00  0.00    -0.386 OA
ATOM     14  H   UNL     1       7.993  11.253  20.343  0.00  0.00    +0.210 HD
ENDBRANCH   4  13
BRANCH   5  15
ATOM     15  C   UNL     1      10.199  14.420  20.151  0.00  0.00    +0.190 C 
BRANCH  15  16
ATOM     16  O   UNL     1      10.566  13.928  21.411  0.00  0.00    -0.392 OA
ATOM     17  H   UNL     1      11.261  13.240  21.246  0.00  0.00    +0.210 HD
ENDBRANCH  15  16
ENDBRANCH   5  15
TORSDOF 6
ENDMDL
