MODEL 1
REMARK VINA RESULT:    -5.116      0.000      0.000
REMARK INTER + INTRA:          -6.209
REMARK INTER:                  -6.162
REMARK INTRA:                  -0.047
REMARK UNBOUND:                -0.047
REMARK  Name = ALL
REMARK  6 active torsions:
REMARK  status: ('A' for Active; 'I' for Inactive)
REMARK    1  A    between atoms: C_1  and  O_7
REMARK    2  A    between atoms: C_2  and  O_8
REMARK    3  A    between atoms: C_3  and  O_9
REMARK    4  A    between atoms: C_4  and  O_10
REMARK    5  A    between atoms: C_5  and  C_6
REMARK    6  A    between atoms: C_6  and  O_12
REMARK                            x       y       z     vdW  Elec       q    Type
REMARK                         _______ _______ _______ _____ _____    ______ ____
ROOT
ATOM      1  C   UNL     1       5.221  12.432  19.195  0.00  0.00    +0.279 C 
ATOM      2  C   UNL     1       5.963  13.783  19.196  0.00  0.00    +0.201 C 
ATOM      3  C   UNL     1       7.190  13.738  18.263  0.00  0.00    +0.179 C 
ATOM      4  C   UNL     1       8.020  12.453  18.492  0.00  0.00    +0.177 C 
ATOM      5  C   UNL     1       7.102  11.206  18.561  0.00  0.00    +0.178 C 
ATOM      6  O   UNL     1       6.107  11.388  19.556  0.00  0.00    -0.341 OA
ENDROOT
BRANCH   1   7
ATOM      7  O   UNL     1       4.183  12.485  20.136  0.00  0.00    -0.365 OA
ATOM      8  H   UNL     1       3.704  13.340  19.978  0.00  0.00    +0.213 HD
ENDBRANCH   1   7
BRANCH   2   9
ATOM      9  O   UNL     1       5.101  14.816  18.789  0.00  0.00    -0.384 OA
ATOM     10  H   UNL     1       5.371  15.631  19.286  0.00  0.00    +0.210 HD
ENDBRANCH   2   9
BRANCH   3  11
ATOM     11  O   UNL     1       6.824  13.889  16.911  0.00  0.00    -0.386 OA
ATOM     12  H   UNL     1       7.418  14.566  16.500  0.00  0.00    +0.210 HD
ENDBRANCH   3  11
BRANCH   4  13
ATOM     13  O   UNL     1       8.965  12.303  17.464  0.00  0.00    -0.386 OA
ATOM     14  H   UNL     1       8.703  11.494  16.951  0.00  0.00    +0.210 HD
ENDBRANCH   4  13
BRANCH   5  15
ATOM     15  C   UNL     1       7.901   9.945  18.921  0.00  0.00    +0.190 C 
BRANCH  15  16
ATOM     16  O   UNL     1       7.258   9.232  19.942  0.00  0.00    -0.392 OA
ATOM     17  H   UNL     1       6.974   9.906  20.612  0.00  0.00    +0.210 HD
ENDBRANCH  15  16
ENDBRANCH   5  15
TORSDOF 6
ENDMDL
