MODEL 10
REMARK VINA RESULT:    -4.663     12.470     14.441
REMARK INTER + INTRA:          -5.665
REMARK INTER:                  -5.420
REMARK INTRA:                  -0.245
REMARK UNBOUND:                -0.047
REMARK  Name = ALL
REMARK  6 active torsions:
REMARK  status: ('A' for Active; 'I' for Inactive)
REMARK    1  A    between atoms: C_1  and  O_7
REMARK    2  A    between atoms: C_2  and  O_8
REMARK    3  A    between atoms: C_3  and  O_9
REMARK    4  A    between atoms: C_4  and  O_10
REMARK    5  A    between atoms: C_5  and  C_6
REMARK    6  A    between atoms: C_6  and  O_12
REMARK                            x       y       z     vdW  Elec       q    Type
REMARK                         _______ _______ _______ _____ _____    ______ ____
ROOT
ATOM      1  C   UNL     1       4.899  25.081  24.599  0.00  0.00    +0.279 C 
ATOM      2  C   UNL     1       4.831  23.619  24.114  0.00  0.00    +0.201 C 
ATOM      3  C   UNL     1       3.406  23.051  24.277  0.00  0.00    +0.179 C 
ATOM      4  C   UNL     1       2.830  23.381  25.673  0.00  0.00    +0.177 C 
ATOM      5  C   UNL     1       3.074  24.868  26.037  0.00  0.00    +0.178 C 
ATOM      6  O   UNL     1       4.457  25.171  25.941  0.00  0.00    -0.341 OA
ENDROOT
BRANCH   1   7
ATOM      7  O   UNL     1       6.230  25.517  24.535  0.00  0.00    -0.365 OA
ATOM      8  H   UNL     1       6.685  24.935  23.873  0.00  0.00    +0.213 HD
ENDBRANCH   1   7
BRANCH   2   9
ATOM      9  O   UNL     1       5.220  23.531  22.767  0.00  0.00    -0.384 OA
ATOM     10  H   UNL     1       4.983  22.619  22.456  0.00  0.00    +0.210 HD
ENDBRANCH   2   9
BRANCH   3  11
ATOM     11  O   UNL     1       2.551  23.481  23.244  0.00  0.00    -0.386 OA
ATOM     12  H   UNL     1       3.100  23.914  22.543  0.00  0.00    +0.210 HD
ENDBRANCH   3  11
BRANCH   4  13
ATOM     13  O   UNL     1       1.454  23.095  25.704  0.00  0.00    -0.386 OA
ATOM     14  H   UNL     1       1.282  22.613  26.555  0.00  0.00    +0.210 HD
ENDBRANCH   4  13
BRANCH   5  15
ATOM     15  C   UNL     1       2.625  25.172  27.473  0.00  0.00    +0.190 C 
BRANCH  15  16
ATOM     16  O   UNL     1       1.241  25.385  27.520  0.00  0.00    -0.392 OA
ATOM     17  H   UNL     1       0.930  24.985  28.374  0.00  0.00    +0.210 HD
ENDBRANCH  15  16
ENDBRANCH   5  15
TORSDOF 6
ENDMDL
