MODEL 16
REMARK VINA RESULT:    -4.558      2.425      4.689
REMARK INTER + INTRA:          -5.537
REMARK INTER:                  -5.285
REMARK INTRA:                  -0.252
REMARK UNBOUND:                -0.047
REMARK  Name = ALL
REMARK  6 active torsions:
REMARK  status: ('A' for Active; 'I' for Inactive)
REMARK    1  A    between atoms: C_1  and  O_7
REMARK    2  A    between atoms: C_2  and  O_8
REMARK    3  A    between atoms: C_3  and  O_9
REMARK    4  A    between atoms: C_4  and  O_10
REMARK    5  A    between atoms: C_5  and  C_6
REMARK    6  A    between atoms: C_6  and  O_12
REMARK                            x       y       z     vdW  Elec       q    Type
REMARK                         _______ _______ _______ _____ _____    ______ ____
ROOT
ATOM      1  C   UNL     1       9.662  14.159  19.956  0.00  0.00    +0.279 C 
ATOM      2  C   UNL     1       8.964  12.792  19.811  0.00  0.00    +0.201 C 
ATOM      3  C   UNL     1       8.144  12.730  18.506  0.00  0.00    +0.179 C 
ATOM      4  C   UNL     1       7.290  14.005  18.321  0.00  0.00    +0.177 C 
ATOM      5  C   UNL     1       8.128  15.279  18.602  0.00  0.00    +0.178 C 
ATOM      6  O   UNL     1       8.709  15.204  19.894  0.00  0.00    -0.341 OA
ENDROOT
BRANCH   1   7
ATOM      7  O   UNL     1      10.302  14.209  21.203  0.00  0.00    -0.365 OA
ATOM      8  H   UNL     1       9.861  13.527  21.773  0.00  0.00    +0.213 HD
ENDBRANCH   1   7
BRANCH   2   9
ATOM      9  O   UNL     1       9.910  11.754  19.821  0.00  0.00    -0.384 OA
ATOM     10  H   UNL     1       9.751  11.224  20.644  0.00  0.00    +0.210 HD
ENDBRANCH   2   9
BRANCH   3  11
ATOM     11  O   UNL     1       8.961  12.482  17.387  0.00  0.00    -0.386 OA
ATOM     12  H   UNL     1       9.084  13.332  16.894  0.00  0.00    +0.210 HD
ENDBRANCH   3  11
BRANCH   4  13
ATOM     13  O   UNL     1       6.768  14.047  17.017  0.00  0.00    -0.386 OA
ATOM     14  H   UNL     1       6.250  14.892  16.944  0.00  0.00    +0.210 HD
ENDBRANCH   4  13
BRANCH   5  15
ATOM     15  C   UNL     1       7.257  16.542  18.551  0.00  0.00    +0.190 C 
BRANCH  15  16
ATOM     16  O   UNL     1       5.905  16.214  18.718  0.00  0.00    -0.392 OA
ATOM     17  H   UNL     1       5.743  16.207  19.697  0.00  0.00    +0.210 HD
ENDBRANCH  15  16
ENDBRANCH   5  15
TORSDOF 6
ENDMDL
