MODEL 2
REMARK VINA RESULT:    -4.958      1.925      3.225
REMARK INTER + INTRA:          -6.019
REMARK INTER:                  -5.771
REMARK INTRA:                  -0.248
REMARK UNBOUND:                -0.047
REMARK  Name = ALL
REMARK  6 active torsions:
REMARK  status: ('A' for Active; 'I' for Inactive)
REMARK    1  A    between atoms: C_1  and  O_7
REMARK    2  A    between atoms: C_2  and  O_8
REMARK    3  A    between atoms: C_3  and  O_9
REMARK    4  A    between atoms: C_4  and  O_10
REMARK    5  A    between atoms: C_5  and  C_6
REMARK    6  A    between atoms: C_6  and  O_12
REMARK                            x       y       z     vdW  Elec       q    Type
REMARK                         _______ _______ _______ _____ _____    ______ ____
ROOT
ATOM      1  C   UNL     1       8.715  12.742  19.854  0.00  0.00    +0.279 C 
ATOM      2  C   UNL     1       7.652  13.842  19.660  0.00  0.00    +0.201 C 
ATOM      3  C   UNL     1       6.231  13.240  19.669  0.00  0.00    +0.179 C 
ATOM      4  C   UNL     1       6.150  11.984  18.771  0.00  0.00    +0.177 C 
ATOM      5  C   UNL     1       7.350  11.038  19.031  0.00  0.00    +0.178 C 
ATOM      6  O   UNL     1       8.570  11.742  18.862  0.00  0.00    -0.341 OA
ENDROOT
BRANCH   1   7
ATOM      7  O   UNL     1       9.988  13.318  19.728  0.00  0.00    -0.365 OA
ATOM      8  H   UNL     1      10.180  13.766  20.593  0.00  0.00    +0.213 HD
ENDBRANCH   1   7
BRANCH   2   9
ATOM      9  O   UNL     1       7.758  14.810  20.672  0.00  0.00    -0.384 OA
ATOM     10  H   UNL     1       6.888  15.287  20.709  0.00  0.00    +0.210 HD
ENDBRANCH   2   9
BRANCH   3  11
ATOM     11  O   UNL     1       5.784  12.975  20.978  0.00  0.00    -0.386 OA
ATOM     12  H   UNL     1       6.562  13.025  21.590  0.00  0.00    +0.210 HD
ENDBRANCH   3  11
BRANCH   4  13
ATOM     13  O   UNL     1       4.941  11.307  19.003  0.00  0.00    -0.386 OA
ATOM     14  H   UNL     1       4.334  11.951  19.454  0.00  0.00    +0.210 HD
ENDBRANCH   4  13
BRANCH   5  15
ATOM     15  C   UNL     1       7.351   9.855  18.053  0.00  0.00    +0.190 C 
BRANCH  15  16
ATOM     16  O   UNL     1       6.748  10.220  16.841  0.00  0.00    -0.392 OA
ATOM     17  H   UNL     1       5.893  10.662  17.082  0.00  0.00    +0.210 HD
ENDBRANCH  15  16
ENDBRANCH   5  15
TORSDOF 6
ENDMDL
