MODEL 6
REMARK VINA RESULT:    -4.822      2.159      3.908
REMARK INTER + INTRA:          -5.856
REMARK INTER:                  -5.636
REMARK INTRA:                  -0.220
REMARK UNBOUND:                -0.047
REMARK  Name = ALL
REMARK  6 active torsions:
REMARK  status: ('A' for Active; 'I' for Inactive)
REMARK    1  A    between atoms: C_1  and  O_7
REMARK    2  A    between atoms: C_2  and  O_8
REMARK    3  A    between atoms: C_3  and  O_9
REMARK    4  A    between atoms: C_4  and  O_10
REMARK    5  A    between atoms: C_5  and  C_6
REMARK    6  A    between atoms: C_6  and  O_12
REMARK                            x       y       z     vdW  Elec       q    Type
REMARK                         _______ _______ _______ _____ _____    ______ ____
ROOT
ATOM      1  C   UNL     1       9.312  11.479  17.799  0.00  0.00    +0.279 C 
ATOM      2  C   UNL     1       9.354  12.873  18.455  0.00  0.00    +0.201 C 
ATOM      3  C   UNL     1       8.547  12.886  19.770  0.00  0.00    +0.179 C 
ATOM      4  C   UNL     1       7.169  12.210  19.587  0.00  0.00    +0.177 C 
ATOM      5  C   UNL     1       7.307  10.868  18.823  0.00  0.00    +0.178 C 
ATOM      6  O   UNL     1       7.971  11.078  17.587  0.00  0.00    -0.341 OA
ENDROOT
BRANCH   1   7
ATOM      7  O   UNL     1       9.963  11.543  16.559  0.00  0.00    -0.365 OA
ATOM      8  H   UNL     1       9.252  11.654  15.875  0.00  0.00    +0.213 HD
ENDBRANCH   1   7
BRANCH   2   9
ATOM      9  O   UNL     1      10.680  13.254  18.715  0.00  0.00    -0.384 OA
ATOM     10  H   UNL     1      10.648  14.159  19.121  0.00  0.00    +0.210 HD
ENDBRANCH   2   9
BRANCH   3  11
ATOM     11  O   UNL     1       9.272  12.315  20.834  0.00  0.00    -0.386 OA
ATOM     12  H   UNL     1       8.827  11.470  21.098  0.00  0.00    +0.210 HD
ENDBRANCH   3  11
BRANCH   4  13
ATOM     13  O   UNL     1       6.570  11.994  20.840  0.00  0.00    -0.386 OA
ATOM     14  H   UNL     1       6.932  12.688  21.452  0.00  0.00    +0.210 HD
ENDBRANCH   4  13
BRANCH   5  15
ATOM     15  C   UNL     1       5.933  10.255  18.520  0.00  0.00    +0.190 C 
BRANCH  15  16
ATOM     16  O   UNL     1       4.910  11.154  18.851  0.00  0.00    -0.392 OA
ATOM     17  H   UNL     1       4.383  11.289  18.021  0.00  0.00    +0.210 HD
ENDBRANCH  15  16
ENDBRANCH   5  15
TORSDOF 6
ENDMDL
