MODEL 4
REMARK VINA RESULT:    -4.917      2.100      4.208
REMARK INTER + INTRA:          -5.970
REMARK INTER:                  -5.730
REMARK INTRA:                  -0.240
REMARK UNBOUND:                -0.047
REMARK  Name = ALL
REMARK  6 active torsions:
REMARK  status: ('A' for Active; 'I' for Inactive)
REMARK    1  A    between atoms: C_1  and  O_7
REMARK    2  A    between atoms: C_2  and  O_8
REMARK    3  A    between atoms: C_3  and  O_9
REMARK    4  A    between atoms: C_4  and  O_10
REMARK    5  A    between atoms: C_5  and  C_6
REMARK    6  A    between atoms: C_6  and  O_12
REMARK                            x       y       z     vdW  Elec       q    Type
REMARK                         _______ _______ _______ _____ _____    ______ ____
ROOT
ATOM      1  C   UNL     1       7.151  10.174  17.490  0.00  0.00    +0.279 C 
ATOM      2  C   UNL     1       8.692  10.166  17.546  0.00  0.00    +0.201 C 
ATOM      3  C   UNL     1       9.192  10.574  18.947  0.00  0.00    +0.179 C 
ATOM      4  C   UNL     1       8.453  11.831  19.461  0.00  0.00    +0.177 C 
ATOM      5  C   UNL     1       6.925  11.707  19.234  0.00  0.00    +0.178 C 
ATOM      6  O   UNL     1       6.655  11.447  17.866  0.00  0.00    -0.341 OA
ENDROOT
BRANCH   1   7
ATOM      7  O   UNL     1       6.746   9.906  16.175  0.00  0.00    -0.365 OA
ATOM      8  H   UNL     1       7.014   8.970  15.983  0.00  0.00    +0.213 HD
ENDBRANCH   1   7
BRANCH   2   9
ATOM      9  O   UNL     1       9.187   8.891  17.224  0.00  0.00    -0.384 OA
ATOM     10  H   UNL     1       9.175   8.818  16.234  0.00  0.00    +0.210 HD
ENDBRANCH   2   9
BRANCH   3  11
ATOM     11  O   UNL     1       9.108   9.508  19.864  0.00  0.00    -0.386 OA
ATOM     12  H   UNL     1       9.630   9.747  20.671  0.00  0.00    +0.210 HD
ENDBRANCH   3  11
BRANCH   4  13
ATOM     13  O   UNL     1       8.727  12.024  20.825  0.00  0.00    -0.386 OA
ATOM     14  H   UNL     1       7.949  12.510  21.207  0.00  0.00    +0.210 HD
ENDBRANCH   4  13
BRANCH   5  15
ATOM     15  C   UNL     1       6.197  13.003  19.618  0.00  0.00    +0.190 C 
BRANCH  15  16
ATOM     16  O   UNL     1       5.885  13.005  20.984  0.00  0.00    -0.392 OA
ATOM     17  H   UNL     1       6.747  13.114  21.463  0.00  0.00    +0.210 HD
ENDBRANCH  15  16
ENDBRANCH   5  15
TORSDOF 6
ENDMDL
