MODEL 18
REMARK VINA RESULT:    -4.495      1.819      2.243
REMARK INTER + INTRA:          -5.462
REMARK INTER:                  -5.427
REMARK INTRA:                  -0.035
REMARK UNBOUND:                -0.047
REMARK  Name = ALL
REMARK  6 active torsions:
REMARK  status: ('A' for Active; 'I' for Inactive)
REMARK    1  A    between atoms: C_1  and  O_7
REMARK    2  A    between atoms: C_2  and  O_8
REMARK    3  A    between atoms: C_3  and  O_9
REMARK    4  A    between atoms: C_4  and  O_10
REMARK    5  A    between atoms: C_5  and  C_6
REMARK    6  A    between atoms: C_6  and  O_12
REMARK                            x       y       z     vdW  Elec       q    Type
REMARK                         _______ _______ _______ _____ _____    ______ ____
ROOT
ATOM      1  C   UNL     1       6.512  12.559  19.827  0.00  0.00    +0.279 C 
ATOM      2  C   UNL     1       8.048  12.665  19.889  0.00  0.00    +0.201 C 
ATOM      3  C   UNL     1       8.689  12.129  18.592  0.00  0.00    +0.179 C 
ATOM      4  C   UNL     1       8.070  10.773  18.182  0.00  0.00    +0.177 C 
ATOM      5  C   UNL     1       6.524  10.819  18.273  0.00  0.00    +0.178 C 
ATOM      6  O   UNL     1       6.124  11.220  19.574  0.00  0.00    -0.341 OA
ENDROOT
BRANCH   1   7
ATOM      7  O   UNL     1       5.981  12.952  21.064  0.00  0.00    -0.365 OA
ATOM      8  H   UNL     1       5.396  13.733  20.883  0.00  0.00    +0.213 HD
ENDBRANCH   1   7
BRANCH   2   9
ATOM      9  O   UNL     1       8.440  13.999  20.089  0.00  0.00    -0.384 OA
ATOM     10  H   UNL     1       8.372  14.178  21.063  0.00  0.00    +0.210 HD
ENDBRANCH   2   9
BRANCH   3  11
ATOM     11  O   UNL     1       8.621  13.071  17.547  0.00  0.00    -0.386 OA
ATOM     12  H   UNL     1       9.348  12.878  16.904  0.00  0.00    +0.210 HD
ENDBRANCH   3  11
BRANCH   4  13
ATOM     13  O   UNL     1       8.469  10.439  16.877  0.00  0.00    -0.386 OA
ATOM     14  H   UNL     1       9.136   9.708  16.960  0.00  0.00    +0.210 HD
ENDBRANCH   4  13
BRANCH   5  15
ATOM     15  C   UNL     1       5.907   9.440  17.997  0.00  0.00    +0.190 C 
BRANCH  15  16
ATOM     16  O   UNL     1       4.544   9.563  17.700  0.00  0.00    -0.392 OA
ATOM     17  H   UNL     1       4.089   8.827  18.187  0.00  0.00    +0.210 HD
ENDBRANCH  15  16
ENDBRANCH   5  15
TORSDOF 6
ENDMDL
