MODEL 1
REMARK VINA RESULT:    -5.668      0.000      0.000
REMARK INTER + INTRA:          -7.626
REMARK INTER:                  -7.159
REMARK INTRA:                  -0.467
REMARK UNBOUND:                -0.467
REMARK  Name = AMQ
REMARK  7 active torsions:
REMARK  status: ('A' for Active; 'I' for Inactive)
REMARK    1  A    between atoms: N_1  and  CA_2
REMARK    2  A    between atoms: CA_2  and  C_3
REMARK    3  A    between atoms: CA_2  and  C_6
REMARK    4  A    between atoms: C_3  and  OXT_5
REMARK    5  A    between atoms: C_6  and  C_7
REMARK    6  A    between atoms: C_8  and  O_11
REMARK    7  A    between atoms: C_9  and  C_10
REMARK                            x       y       z     vdW  Elec       q    Type
REMARK                         _______ _______ _______ _____ _____    ______ ____
ROOT
ATOM      1  C   UNL     1      -1.767  49.534   8.873  0.00  0.00    +0.074 C 
ENDROOT
BRANCH   1   2
ATOM      2  C   UNL     1      -1.611  48.723   7.615  0.00  0.00    +0.059 A 
ATOM      3  C   UNL     1      -0.491  48.569   6.823  0.00  0.00    +0.256 A 
ATOM      4  C   UNL     1      -2.582  48.006   6.940  0.00  0.00    +0.141 A 
ATOM      5  C   UNL     1      -4.010  47.833   7.337  0.00  0.00    +0.089 C 
ATOM      6  N   UNL     1      -0.784  47.800   5.758  0.00  0.00    -0.040 NA
ATOM      7  O   UNL     1      -2.043  47.481   5.862  0.00  0.00    -0.356 OA
BRANCH   3   8
ATOM      8  O   UNL     1       0.769  49.116   7.048  0.00  0.00    -0.490 OA
ATOM      9  H   UNL     1       1.305  48.888   7.876  0.00  0.00    +0.294 HD
ENDBRANCH   3   8
ENDBRANCH   1   2
BRANCH   1  10
ATOM     10  CA  UNL     1      -0.902  48.985  10.023  0.00  0.00    +0.165 C 
BRANCH  10  11
ATOM     11  N   UNL     1      -1.735  48.629  11.175  0.00  0.00    -0.318 NA
ATOM     12  H1  UNL     1      -2.654  49.117  11.083  0.00  0.00    +0.119 HD
ATOM     13  H2  UNL     1      -1.955  47.608  11.121  0.00  0.00    +0.119 HD
ENDBRANCH  10  11
BRANCH  10  14
ATOM     14  C   UNL     1       0.102  50.025  10.428  0.00  0.00    +0.322 C 
ATOM     15  O   UNL     1       0.492  50.095  11.625  0.00  0.00    -0.249 OA
BRANCH  14  16
ATOM     16  OXT UNL     1       0.627  50.895   9.476  0.00  0.00    -0.480 OA
ATOM     17  HXT UNL     1       1.263  51.636   9.745  0.00  0.00    +0.295 HD
ENDBRANCH  14  16
ENDBRANCH  10  14
ENDBRANCH   1  10
TORSDOF 6
ENDMDL
MODEL 2
REMARK VINA RESULT:    -5.540      4.932      7.181
REMARK INTER + INTRA:          -7.464
REMARK INTER:                  -7.125
REMARK INTRA:                  -0.340
REMARK UNBOUND:                -0.467
REMARK  Name = AMQ
REMARK  7 active torsions:
REMARK  status: ('A' for Active; 'I' for Inactive)
REMARK    1  A    between atoms: N_1  and  CA_2
REMARK    2  A    between atoms: CA_2  and  C_3
REMARK    3  A    between atoms: CA_2  and  C_6
REMARK    4  A    between atoms: C_3  and  OXT_5
REMARK    5  A    between atoms: C_6  and  C_7
REMARK    6  A    between atoms: C_8  and  O_11
REMARK    7  A    between atoms: C_9  and  C_10
REMARK                            x       y       z     vdW  Elec       q    Type
REMARK                         _______ _______ _______ _____ _____    ______ ____
ROOT
ATOM      1  C   UNL     1      -2.408  45.494  12.050  0.00  0.00    +0.074 C 
ENDROOT
BRANCH   1   2
ATOM      2  C   UNL     1      -2.938  46.284  13.215  0.00  0.00    +0.059 A 
ATOM      3  C   UNL     1      -3.688  45.840  14.287  0.00  0.00    +0.256 A 
ATOM      4  C   UNL     1      -2.847  47.647  13.432  0.00  0.00    +0.141 A 
ATOM      5  C   UNL     1      -2.150  48.648  12.571  0.00  0.00    +0.089 C 
ATOM      6  N   UNL     1      -4.003  46.876  15.087  0.00  0.00    -0.040 NA
ATOM      7  O   UNL     1      -3.483  47.940  14.544  0.00  0.00    -0.356 OA
BRANCH   3   8
ATOM      8  O   UNL     1      -4.087  44.531  14.538  0.00  0.00    -0.490 OA
ATOM      9  H   UNL     1      -4.005  44.120  15.460  0.00  0.00    +0.294 HD
ENDBRANCH   3   8
ENDBRANCH   1   2
BRANCH   1  10
ATOM     10  CA  UNL     1      -3.541  44.924  11.177  0.00  0.00    +0.165 C 
BRANCH  10  11
ATOM     11  N   UNL     1      -3.653  43.474  11.351  0.00  0.00    -0.318 NA
ATOM     12  H1  UNL     1      -4.656  43.237  11.527  0.00  0.00    +0.119 HD
ATOM     13  H2  UNL     1      -3.413  43.012  10.444  0.00  0.00    +0.119 HD
ENDBRANCH  10  11
BRANCH  10  14
ATOM     14  C   UNL     1      -3.262  45.239   9.735  0.00  0.00    +0.322 C 
ATOM     15  O   UNL     1      -2.845  46.382   9.407  0.00  0.00    -0.249 OA
BRANCH  14  16
ATOM     16  OXT UNL     1      -3.434  44.258   8.762  0.00  0.00    -0.480 OA
ATOM     17  HXT UNL     1      -4.045  43.467   8.924  0.00  0.00    +0.295 HD
ENDBRANCH  14  16
ENDBRANCH  10  14
ENDBRANCH   1  10
TORSDOF 6
ENDMDL
MODEL 3
REMARK VINA RESULT:    -5.476      4.409      6.473
REMARK INTER + INTRA:          -7.383
REMARK INTER:                  -6.929
REMARK INTRA:                  -0.454
REMARK UNBOUND:                -0.467
REMARK  Name = AMQ
REMARK  7 active torsions:
REMARK  status: ('A' for Active; 'I' for Inactive)
REMARK    1  A    between atoms: N_1  and  CA_2
REMARK    2  A    between atoms: CA_2  and  C_3
REMARK    3  A    between atoms: CA_2  and  C_6
REMARK    4  A    between atoms: C_3  and  OXT_5
REMARK    5  A    between atoms: C_6  and  C_7
REMARK    6  A    between atoms: C_8  and  O_11
REMARK    7  A    between atoms: C_9  and  C_10
REMARK                            x       y       z     vdW  Elec       q    Type
REMARK                         _______ _______ _______ _____ _____    ______ ____
ROOT
ATOM      1  C   UNL     1      -3.011  47.284  12.537  0.00  0.00    +0.074 C 
ENDROOT
BRANCH   1   2
ATOM      2  C   UNL     1      -2.128  48.500  12.626  0.00  0.00    +0.059 A 
ATOM      3  C   UNL     1      -1.965  49.370  13.686  0.00  0.00    +0.256 A 
ATOM      4  C   UNL     1      -1.335  49.050  11.636  0.00  0.00    +0.141 A 
ATOM      5  C   UNL     1      -1.136  48.528  10.251  0.00  0.00    +0.089 C 
ATOM      6  N   UNL     1      -1.119  50.359  13.341  0.00  0.00    -0.040 NA
ATOM      7  O   UNL     1      -0.763  50.134  12.109  0.00  0.00    -0.356 OA
BRANCH   3   8
ATOM      8  O   UNL     1      -2.569  49.282  14.936  0.00  0.00    -0.490 OA
ATOM      9  H   UNL     1      -3.454  49.735  15.130  0.00  0.00    +0.294 HD
ENDBRANCH   3   8
ENDBRANCH   1   2
BRANCH   1  10
ATOM     10  CA  UNL     1      -2.556  46.171  13.498  0.00  0.00    +0.165 C 
BRANCH  10  11
ATOM     11  N   UNL     1      -2.210  44.955  12.758  0.00  0.00    -0.318 NA
ATOM     12  H1  UNL     1      -3.093  44.456  12.509  0.00  0.00    +0.119 HD
ATOM     13  H2  UNL     1      -1.782  45.233  11.846  0.00  0.00    +0.119 HD
ENDBRANCH  10  11
BRANCH  10  14
ATOM     14  C   UNL     1      -3.662  45.872  14.470  0.00  0.00    +0.322 C 
ATOM     15  O   UNL     1      -4.424  46.797  14.863  0.00  0.00    -0.249 OA
BRANCH  14  16
ATOM     16  OXT UNL     1      -3.866  44.569  14.914  0.00  0.00    -0.480 OA
ATOM     17  HXT UNL     1      -4.801  44.190  14.998  0.00  0.00    +0.295 HD
ENDBRANCH  14  16
ENDBRANCH  10  14
ENDBRANCH   1  10
TORSDOF 6
ENDMDL
MODEL 4
REMARK VINA RESULT:    -5.386      4.604      6.653
REMARK INTER + INTRA:          -7.269
REMARK INTER:                  -6.813
REMARK INTRA:                  -0.456
REMARK UNBOUND:                -0.467
REMARK  Name = AMQ
REMARK  7 active torsions:
REMARK  status: ('A' for Active; 'I' for Inactive)
REMARK    1  A    between atoms: N_1  and  CA_2
REMARK    2  A    between atoms: CA_2  and  C_3
REMARK    3  A    between atoms: CA_2  and  C_6
REMARK    4  A    between atoms: C_3  and  OXT_5
REMARK    5  A    between atoms: C_6  and  C_7
REMARK    6  A    between atoms: C_8  and  O_11
REMARK    7  A    between atoms: C_9  and  C_10
REMARK                            x       y       z     vdW  Elec       q    Type
REMARK                         _______ _______ _______ _____ _____    ______ ____
ROOT
ATOM      1  C   UNL     1      -2.343  45.358  12.099  0.00  0.00    +0.074 C 
ENDROOT
BRANCH   1   2
ATOM      2  C   UNL     1      -2.749  46.511  12.977  0.00  0.00    +0.059 A 
ATOM      3  C   UNL     1      -2.449  47.851  12.833  0.00  0.00    +0.256 A 
ATOM      4  C   UNL     1      -3.459  46.468  14.163  0.00  0.00    +0.141 A 
ATOM      5  C   UNL     1      -4.032  45.258  14.824  0.00  0.00    +0.089 C 
ATOM      6  N   UNL     1      -2.963  48.550  13.863  0.00  0.00    -0.040 NA
ATOM      7  O   UNL     1      -3.560  47.690  14.638  0.00  0.00    -0.356 OA
BRANCH   3   8
ATOM      8  O   UNL     1      -1.722  48.435  11.801  0.00  0.00    -0.490 OA
ATOM      9  H   UNL     1      -2.173  48.768  10.957  0.00  0.00    +0.294 HD
ENDBRANCH   3   8
ENDBRANCH   1   2
BRANCH   1  10
ATOM     10  CA  UNL     1      -3.492  44.900  11.183  0.00  0.00    +0.165 C 
BRANCH  10  11
ATOM     11  N   UNL     1      -3.700  43.454  11.293  0.00  0.00    -0.318 NA
ATOM     12  H1  UNL     1      -3.936  43.080  10.347  0.00  0.00    +0.119 HD
ATOM     13  H2  UNL     1      -2.789  43.008  11.548  0.00  0.00    +0.119 HD
ENDBRANCH  10  11
BRANCH  10  14
ATOM     14  C   UNL     1      -3.164  45.256   9.761  0.00  0.00    +0.322 C 
ATOM     15  O   UNL     1      -3.420  44.443   8.831  0.00  0.00    -0.249 OA
BRANCH  14  16
ATOM     16  OXT UNL     1      -2.604  46.495   9.464  0.00  0.00    -0.480 OA
ATOM     17  HXT UNL     1      -1.974  46.605   8.679  0.00  0.00    +0.295 HD
ENDBRANCH  14  16
ENDBRANCH  10  14
ENDBRANCH   1  10
TORSDOF 6
ENDMDL
MODEL 5
REMARK VINA RESULT:    -5.337      1.640      1.666
REMARK INTER + INTRA:          -7.208
REMARK INTER:                  -6.830
REMARK INTRA:                  -0.378
REMARK UNBOUND:                -0.467
REMARK  Name = AMQ
REMARK  7 active torsions:
REMARK  status: ('A' for Active; 'I' for Inactive)
REMARK    1  A    between atoms: N_1  and  CA_2
REMARK    2  A    between atoms: CA_2  and  C_3
REMARK    3  A    between atoms: CA_2  and  C_6
REMARK    4  A    between atoms: C_3  and  OXT_5
REMARK    5  A    between atoms: C_6  and  C_7
REMARK    6  A    between atoms: C_8  and  O_11
REMARK    7  A    between atoms: C_9  and  C_10
REMARK                            x       y       z     vdW  Elec       q    Type
REMARK                         _______ _______ _______ _____ _____    ______ ____
ROOT
ATOM      1  C   UNL     1      -1.066  48.828   9.174  0.00  0.00    +0.074 C 
ENDROOT
BRANCH   1   2
ATOM      2  C   UNL     1      -1.290  48.429   7.740  0.00  0.00    +0.059 A 
ATOM      3  C   UNL     1      -0.428  48.550   6.667  0.00  0.00    +0.256 A 
ATOM      4  C   UNL     1      -2.438  47.911   7.170  0.00  0.00    +0.141 A 
ATOM      5  C   UNL     1      -3.718  47.583   7.867  0.00  0.00    +0.089 C 
ATOM      6  N   UNL     1      -1.031  48.119   5.543  0.00  0.00    -0.040 NA
ATOM      7  O   UNL     1      -2.231  47.744   5.883  0.00  0.00    -0.356 OA
BRANCH   3   8
ATOM      8  O   UNL     1       0.871  49.046   6.696  0.00  0.00    -0.490 OA
ATOM      9  H   UNL     1       1.157  49.818   6.105  0.00  0.00    +0.294 HD
ENDBRANCH   3   8
ENDBRANCH   1   2
BRANCH   1  10
ATOM     10  CA  UNL     1      -0.932  50.354   9.332  0.00  0.00    +0.165 C 
BRANCH  10  11
ATOM     11  N   UNL     1       0.477  50.755   9.334  0.00  0.00    -0.318 NA
ATOM     12  H1  UNL     1       1.066  49.898   9.232  0.00  0.00    +0.119 HD
ATOM     13  H2  UNL     1       0.661  51.322   8.475  0.00  0.00    +0.119 HD
ENDBRANCH  10  11
BRANCH  10  14
ATOM     14  C   UNL     1      -1.580  50.777  10.620  0.00  0.00    +0.322 C 
ATOM     15  O   UNL     1      -1.943  49.908  11.459  0.00  0.00    -0.249 OA
BRANCH  14  16
ATOM     16  OXT UNL     1      -1.751  52.129  10.903  0.00  0.00    -0.480 OA
ATOM     17  HXT UNL     1      -1.011  52.665  11.340  0.00  0.00    +0.295 HD
ENDBRANCH  14  16
ENDBRANCH  10  14
ENDBRANCH   1  10
TORSDOF 6
ENDMDL
MODEL 6
REMARK VINA RESULT:    -5.297      1.629      4.625
REMARK INTER + INTRA:          -7.157
REMARK INTER:                  -6.794
REMARK INTRA:                  -0.363
REMARK UNBOUND:                -0.467
REMARK  Name = AMQ
REMARK  7 active torsions:
REMARK  status: ('A' for Active; 'I' for Inactive)
REMARK    1  A    between atoms: N_1  and  CA_2
REMARK    2  A    between atoms: CA_2  and  C_3
REMARK    3  A    between atoms: CA_2  and  C_6
REMARK    4  A    between atoms: C_3  and  OXT_5
REMARK    5  A    between atoms: C_6  and  C_7
REMARK    6  A    between atoms: C_8  and  O_11
REMARK    7  A    between atoms: C_9  and  C_10
REMARK                            x       y       z     vdW  Elec       q    Type
REMARK                         _______ _______ _______ _____ _____    ______ ____
ROOT
ATOM      1  C   UNL     1      -1.557  49.057   8.157  0.00  0.00    +0.074 C 
ENDROOT
BRANCH   1   2
ATOM      2  C   UNL     1      -1.031  49.428   9.517  0.00  0.00    +0.059 A 
ATOM      3  C   UNL     1      -0.129  50.420   9.851  0.00  0.00    +0.256 A 
ATOM      4  C   UNL     1      -1.287  48.809  10.726  0.00  0.00    +0.141 A 
ATOM      5  C   UNL     1      -2.192  47.646  10.966  0.00  0.00    +0.089 C 
ATOM      6  N   UNL     1       0.116  50.391  11.174  0.00  0.00    -0.040 NA
ATOM      7  O   UNL     1      -0.594  49.415  11.664  0.00  0.00    -0.356 OA
BRANCH   3   8
ATOM      8  O   UNL     1       0.467  51.329   8.982  0.00  0.00    -0.490 OA
ATOM      9  H   UNL     1       0.227  52.313   8.998  0.00  0.00    +0.294 HD
ENDBRANCH   3   8
ENDBRANCH   1   2
BRANCH   1  10
ATOM     10  CA  UNL     1      -0.546  48.214   7.359  0.00  0.00    +0.165 C 
BRANCH  10  11
ATOM     11  N   UNL     1       0.374  49.076   6.611  0.00  0.00    -0.318 NA
ATOM     12  H1  UNL     1       0.496  48.678   5.652  0.00  0.00    +0.119 HD
ATOM     13  H2  UNL     1      -0.084  50.005   6.470  0.00  0.00    +0.119 HD
ENDBRANCH  10  11
BRANCH  10  14
ATOM     14  C   UNL     1      -1.288  47.322   6.405  0.00  0.00    +0.322 C 
ATOM     15  O   UNL     1      -2.417  47.670   5.963  0.00  0.00    -0.249 OA
BRANCH  14  16
ATOM     16  OXT UNL     1      -0.718  46.124   5.984  0.00  0.00    -0.480 OA
ATOM     17  HXT UNL     1      -0.050  46.106   5.222  0.00  0.00    +0.295 HD
ENDBRANCH  14  16
ENDBRANCH  10  14
ENDBRANCH   1  10
TORSDOF 6
ENDMDL
MODEL 7
REMARK VINA RESULT:    -5.143      4.319      5.813
REMARK INTER + INTRA:          -6.963
REMARK INTER:                  -6.629
REMARK INTRA:                  -0.334
REMARK UNBOUND:                -0.467
REMARK  Name = AMQ
REMARK  7 active torsions:
REMARK  status: ('A' for Active; 'I' for Inactive)
REMARK    1  A    between atoms: N_1  and  CA_2
REMARK    2  A    between atoms: CA_2  and  C_3
REMARK    3  A    between atoms: CA_2  and  C_6
REMARK    4  A    between atoms: C_3  and  OXT_5
REMARK    5  A    between atoms: C_6  and  C_7
REMARK    6  A    between atoms: C_8  and  O_11
REMARK    7  A    between atoms: C_9  and  C_10
REMARK                            x       y       z     vdW  Elec       q    Type
REMARK                         _______ _______ _______ _____ _____    ______ ____
ROOT
ATOM      1  C   UNL     1      -3.187  47.361  12.495  0.00  0.00    +0.074 C 
ENDROOT
BRANCH   1   2
ATOM      2  C   UNL     1      -2.091  48.196  11.892  0.00  0.00    +0.059 A 
ATOM      3  C   UNL     1      -1.326  47.935  10.772  0.00  0.00    +0.256 A 
ATOM      4  C   UNL     1      -1.565  49.383  12.368  0.00  0.00    +0.141 A 
ATOM      5  C   UNL     1      -2.003  50.138  13.580  0.00  0.00    +0.089 C 
ATOM      6  N   UNL     1      -0.417  48.913  10.598  0.00  0.00    -0.040 NA
ATOM      7  O   UNL     1      -0.590  49.762  11.571  0.00  0.00    -0.356 OA
BRANCH   3   8
ATOM      8  O   UNL     1      -1.436  46.834   9.928  0.00  0.00    -0.490 OA
ATOM      9  H   UNL     1      -1.221  45.897  10.248  0.00  0.00    +0.294 HD
ENDBRANCH   3   8
ENDBRANCH   1   2
BRANCH   1  10
ATOM     10  CA  UNL     1      -2.632  46.282  13.443  0.00  0.00    +0.165 C 
BRANCH  10  11
ATOM     11  N   UNL     1      -2.179  45.111  12.688  0.00  0.00    -0.318 NA
ATOM     12  H1  UNL     1      -1.415  45.409  12.041  0.00  0.00    +0.119 HD
ATOM     13  H2  UNL     1      -1.732  44.440  13.355  0.00  0.00    +0.119 HD
ENDBRANCH  10  11
BRANCH  10  14
ATOM     14  C   UNL     1      -3.706  45.873  14.411  0.00  0.00    +0.322 C 
ATOM     15  O   UNL     1      -4.596  46.698  14.753  0.00  0.00    -0.249 OA
BRANCH  14  16
ATOM     16  OXT UNL     1      -3.738  44.573  14.908  0.00  0.00    -0.480 OA
ATOM     17  HXT UNL     1      -4.035  44.388  15.858  0.00  0.00    +0.295 HD
ENDBRANCH  14  16
ENDBRANCH  10  14
ENDBRANCH   1  10
TORSDOF 6
ENDMDL
MODEL 8
REMARK VINA RESULT:    -5.132      4.419      5.065
REMARK INTER + INTRA:          -6.949
REMARK INTER:                  -6.478
REMARK INTRA:                  -0.471
REMARK UNBOUND:                -0.467
REMARK  Name = AMQ
REMARK  7 active torsions:
REMARK  status: ('A' for Active; 'I' for Inactive)
REMARK    1  A    between atoms: N_1  and  CA_2
REMARK    2  A    between atoms: CA_2  and  C_3
REMARK    3  A    between atoms: CA_2  and  C_6
REMARK    4  A    between atoms: C_3  and  OXT_5
REMARK    5  A    between atoms: C_6  and  C_7
REMARK    6  A    between atoms: C_8  and  O_11
REMARK    7  A    between atoms: C_9  and  C_10
REMARK                            x       y       z     vdW  Elec       q    Type
REMARK                         _______ _______ _______ _____ _____    ______ ____
ROOT
ATOM      1  C   UNL     1      -2.316  47.473  11.305  0.00  0.00    +0.074 C 
ENDROOT
BRANCH   1   2
ATOM      2  C   UNL     1      -2.791  46.061  11.094  0.00  0.00    +0.059 A 
ATOM      3  C   UNL     1      -2.682  44.979  11.944  0.00  0.00    +0.256 A 
ATOM      4  C   UNL     1      -3.386  45.523   9.967  0.00  0.00    +0.141 A 
ATOM      5  C   UNL     1      -3.737  46.242   8.707  0.00  0.00    +0.089 C 
ATOM      6  N   UNL     1      -3.191  43.880  11.357  0.00  0.00    -0.040 NA
ATOM      7  O   UNL     1      -3.603  44.244  10.176  0.00  0.00    -0.356 OA
BRANCH   3   8
ATOM      8  O   UNL     1      -2.128  44.977  13.221  0.00  0.00    -0.490 OA
ATOM      9  H   UNL     1      -1.164  45.244  13.381  0.00  0.00    +0.294 HD
ENDBRANCH   3   8
ENDBRANCH   1   2
BRANCH   1  10
ATOM     10  CA  UNL     1      -3.257  48.264  12.232  0.00  0.00    +0.165 C 
BRANCH  10  11
ATOM     11  N   UNL     1      -3.657  49.529  11.611  0.00  0.00    -0.318 NA
ATOM     12  H1  UNL     1      -2.796  50.025  11.284  0.00  0.00    +0.119 HD
ATOM     13  H2  UNL     1      -4.200  49.314  10.743  0.00  0.00    +0.119 HD
ENDBRANCH  10  11
BRANCH  10  14
ATOM     14  C   UNL     1      -2.555  48.541  13.532  0.00  0.00    +0.322 C 
ATOM     15  O   UNL     1      -2.520  49.714  13.994  0.00  0.00    -0.249 OA
BRANCH  14  16
ATOM     16  OXT UNL     1      -1.968  47.498  14.242  0.00  0.00    -0.480 OA
ATOM     17  HXT UNL     1      -1.345  47.684  15.019  0.00  0.00    +0.295 HD
ENDBRANCH  14  16
ENDBRANCH  10  14
ENDBRANCH   1  10
TORSDOF 6
ENDMDL
MODEL 9
REMARK VINA RESULT:    -5.122      2.843      3.656
REMARK INTER + INTRA:          -6.936
REMARK INTER:                  -6.722
REMARK INTRA:                  -0.214
REMARK UNBOUND:                -0.467
REMARK  Name = AMQ
REMARK  7 active torsions:
REMARK  status: ('A' for Active; 'I' for Inactive)
REMARK    1  A    between atoms: N_1  and  CA_2
REMARK    2  A    between atoms: CA_2  and  C_3
REMARK    3  A    between atoms: CA_2  and  C_6
REMARK    4  A    between atoms: C_3  and  OXT_5
REMARK    5  A    between atoms: C_6  and  C_7
REMARK    6  A    between atoms: C_8  and  O_11
REMARK    7  A    between atoms: C_9  and  C_10
REMARK                            x       y       z     vdW  Elec       q    Type
REMARK                         _______ _______ _______ _____ _____    ______ ____
ROOT
ATOM      1  C   UNL     1      -0.069  50.059  12.204  0.00  0.00    +0.074 C 
ENDROOT
BRANCH   1   2
ATOM      2  C   UNL     1      -0.705  49.723  10.882  0.00  0.00    +0.059 A 
ATOM      3  C   UNL     1      -0.385  50.199   9.626  0.00  0.00    +0.256 A 
ATOM      4  C   UNL     1      -1.798  48.910  10.646  0.00  0.00    +0.141 A 
ATOM      5  C   UNL     1      -2.575  48.133  11.657  0.00  0.00    +0.089 C 
ATOM      6  N   UNL     1      -1.229  49.687   8.711  0.00  0.00    -0.040 NA
ATOM      7  O   UNL     1      -2.060  48.920   9.357  0.00  0.00    -0.356 OA
BRANCH   3   8
ATOM      8  O   UNL     1       0.642  51.084   9.309  0.00  0.00    -0.490 OA
ATOM      9  H   UNL     1       1.603  50.773   9.229  0.00  0.00    +0.294 HD
ENDBRANCH   3   8
ENDBRANCH   1   2
BRANCH   1  10
ATOM     10  CA  UNL     1      -0.321  51.523  12.608  0.00  0.00    +0.165 C 
BRANCH  10  11
ATOM     11  N   UNL     1      -1.367  52.120  11.774  0.00  0.00    -0.318 NA
ATOM     12  H1  UNL     1      -2.298  51.843  12.160  0.00  0.00    +0.119 HD
ATOM     13  H2  UNL     1      -1.321  53.160  11.879  0.00  0.00    +0.119 HD
ENDBRANCH  10  11
BRANCH  10  14
ATOM     14  C   UNL     1       0.953  52.305  12.455  0.00  0.00    +0.322 C 
ATOM     15  O   UNL     1       1.216  52.877  11.363  0.00  0.00    -0.249 OA
BRANCH  14  16
ATOM     16  OXT UNL     1       1.830  52.424  13.530  0.00  0.00    -0.480 OA
ATOM     17  HXT UNL     1       2.329  53.289  13.698  0.00  0.00    +0.295 HD
ENDBRANCH  14  16
ENDBRANCH  10  14
ENDBRANCH   1  10
TORSDOF 6
ENDMDL
MODEL 10
REMARK VINA RESULT:    -5.108      4.827      5.574
REMARK INTER + INTRA:          -6.919
REMARK INTER:                  -6.496
REMARK INTRA:                  -0.422
REMARK UNBOUND:                -0.467
REMARK  Name = AMQ
REMARK  7 active torsions:
REMARK  status: ('A' for Active; 'I' for Inactive)
REMARK    1  A    between atoms: N_1  and  CA_2
REMARK    2  A    between atoms: CA_2  and  C_3
REMARK    3  A    between atoms: CA_2  and  C_6
REMARK    4  A    between atoms: C_3  and  OXT_5
REMARK    5  A    between atoms: C_6  and  C_7
REMARK    6  A    between atoms: C_8  and  O_11
REMARK    7  A    between atoms: C_9  and  C_10
REMARK                            x       y       z     vdW  Elec       q    Type
REMARK                         _______ _______ _______ _____ _____    ______ ____
ROOT
ATOM      1  C   UNL     1      -2.542  46.817  11.954  0.00  0.00    +0.074 C 
ENDROOT
BRANCH   1   2
ATOM      2  C   UNL     1      -3.320  46.100  10.883  0.00  0.00    +0.059 A 
ATOM      3  C   UNL     1      -3.512  44.742  10.721  0.00  0.00    +0.256 A 
ATOM      4  C   UNL     1      -3.958  46.647   9.785  0.00  0.00    +0.141 A 
ATOM      5  C   UNL     1      -4.061  48.094   9.435  0.00  0.00    +0.089 C 
ATOM      6  N   UNL     1      -4.229  44.510   9.606  0.00  0.00    -0.040 NA
ATOM      7  O   UNL     1      -4.478  45.672   9.072  0.00  0.00    -0.356 OA
BRANCH   3   8
ATOM      8  O   UNL     1      -3.047  43.731  11.556  0.00  0.00    -0.490 OA
ATOM      9  H   UNL     1      -2.212  43.849  12.117  0.00  0.00    +0.294 HD
ENDBRANCH   3   8
ENDBRANCH   1   2
BRANCH   1  10
ATOM     10  CA  UNL     1      -3.377  47.021  13.232  0.00  0.00    +0.165 C 
BRANCH  10  11
ATOM     11  N   UNL     1      -3.031  48.288  13.881  0.00  0.00    -0.318 NA
ATOM     12  H1  UNL     1      -2.555  48.901  13.181  0.00  0.00    +0.119 HD
ATOM     13  H2  UNL     1      -3.917  48.786  14.128  0.00  0.00    +0.119 HD
ENDBRANCH  10  11
BRANCH  10  14
ATOM     14  C   UNL     1      -3.120  45.883  14.178  0.00  0.00    +0.322 C 
ATOM     15  O   UNL     1      -2.031  45.249  14.124  0.00  0.00    -0.249 OA
BRANCH  14  16
ATOM     16  OXT UNL     1      -4.071  45.546  15.137  0.00  0.00    -0.480 OA
ATOM     17  HXT UNL     1      -5.033  45.849  15.043  0.00  0.00    +0.295 HD
ENDBRANCH  14  16
ENDBRANCH  10  14
ENDBRANCH   1  10
TORSDOF 6
ENDMDL
MODEL 11
REMARK VINA RESULT:    -5.098      4.171      5.287
REMARK INTER + INTRA:          -6.906
REMARK INTER:                  -6.661
REMARK INTRA:                  -0.245
REMARK UNBOUND:                -0.467
REMARK  Name = AMQ
REMARK  7 active torsions:
REMARK  status: ('A' for Active; 'I' for Inactive)
REMARK    1  A    between atoms: N_1  and  CA_2
REMARK    2  A    between atoms: CA_2  and  C_3
REMARK    3  A    between atoms: CA_2  and  C_6
REMARK    4  A    between atoms: C_3  and  OXT_5
REMARK    5  A    between atoms: C_6  and  C_7
REMARK    6  A    between atoms: C_8  and  O_11
REMARK    7  A    between atoms: C_9  and  C_10
REMARK                            x       y       z     vdW  Elec       q    Type
REMARK                         _______ _______ _______ _____ _____    ______ ____
ROOT
ATOM      1  C   UNL     1      -0.597  49.863  12.234  0.00  0.00    +0.074 C 
ENDROOT
BRANCH   1   2
ATOM      2  C   UNL     1      -1.823  49.092  12.643  0.00  0.00    +0.059 A 
ATOM      3  C   UNL     1      -2.156  48.602  13.891  0.00  0.00    +0.256 A 
ATOM      4  C   UNL     1      -2.856  48.646  11.839  0.00  0.00    +0.141 A 
ATOM      5  C   UNL     1      -3.014  48.874  10.372  0.00  0.00    +0.089 C 
ATOM      6  N   UNL     1      -3.317  47.924  13.823  0.00  0.00    -0.040 NA
ATOM      7  O   UNL     1      -3.706  47.972  12.581  0.00  0.00    -0.356 OA
BRANCH   3   8
ATOM      8  O   UNL     1      -1.427  48.755  15.066  0.00  0.00    -0.490 OA
ATOM      9  H   UNL     1      -1.860  49.090  15.918  0.00  0.00    +0.294 HD
ENDBRANCH   3   8
ENDBRANCH   1   2
BRANCH   1  10
ATOM     10  CA  UNL     1      -0.690  51.347  12.637  0.00  0.00    +0.165 C 
BRANCH  10  11
ATOM     11  N   UNL     1      -1.634  52.062  11.775  0.00  0.00    -0.318 NA
ATOM     12  H1  UNL     1      -1.165  52.260  10.862  0.00  0.00    +0.119 HD
ATOM     13  H2  UNL     1      -2.426  51.418  11.545  0.00  0.00    +0.119 HD
ENDBRANCH  10  11
BRANCH  10  14
ATOM     14  C   UNL     1       0.670  51.976  12.527  0.00  0.00    +0.322 C 
ATOM     15  O   UNL     1       1.551  51.732  13.395  0.00  0.00    -0.249 OA
BRANCH  14  16
ATOM     16  OXT UNL     1       0.969  52.804  11.449  0.00  0.00    -0.480 OA
ATOM     17  HXT UNL     1       1.553  52.477  10.689  0.00  0.00    +0.295 HD
ENDBRANCH  14  16
ENDBRANCH  10  14
ENDBRANCH   1  10
TORSDOF 6
ENDMDL
MODEL 12
REMARK VINA RESULT:    -5.090      3.692      4.172
REMARK INTER + INTRA:          -6.896
REMARK INTER:                  -6.436
REMARK INTRA:                  -0.460
REMARK UNBOUND:                -0.467
REMARK  Name = AMQ
REMARK  7 active torsions:
REMARK  status: ('A' for Active; 'I' for Inactive)
REMARK    1  A    between atoms: N_1  and  CA_2
REMARK    2  A    between atoms: CA_2  and  C_3
REMARK    3  A    between atoms: CA_2  and  C_6
REMARK    4  A    between atoms: C_3  and  OXT_5
REMARK    5  A    between atoms: C_6  and  C_7
REMARK    6  A    between atoms: C_8  and  O_11
REMARK    7  A    between atoms: C_9  and  C_10
REMARK                            x       y       z     vdW  Elec       q    Type
REMARK                         _______ _______ _______ _____ _____    ______ ____
ROOT
ATOM      1  C   UNL     1      -1.381  47.241  10.849  0.00  0.00    +0.074 C 
ENDROOT
BRANCH   1   2
ATOM      2  C   UNL     1      -0.913  46.764   9.501  0.00  0.00    +0.059 A 
ATOM      3  C   UNL     1      -0.107  45.684   9.201  0.00  0.00    +0.256 A 
ATOM      4  C   UNL     1      -1.135  47.348   8.267  0.00  0.00    +0.141 A 
ATOM      5  C   UNL     1      -1.941  48.574   7.986  0.00  0.00    +0.089 C 
ATOM      6  N   UNL     1       0.117  45.632   7.875  0.00  0.00    -0.040 NA
ATOM      7  O   UNL     1      -0.514  46.642   7.349  0.00  0.00    -0.356 OA
BRANCH   3   8
ATOM      8  O   UNL     1       0.424  44.766  10.103  0.00  0.00    -0.490 OA
ATOM      9  H   UNL     1       0.030  44.644  11.028  0.00  0.00    +0.294 HD
ENDBRANCH   3   8
ENDBRANCH   1   2
BRANCH   1  10
ATOM     10  CA  UNL     1      -2.671  46.527  11.296  0.00  0.00    +0.165 C 
BRANCH  10  11
ATOM     11  N   UNL     1      -3.523  47.431  12.071  0.00  0.00    -0.318 NA
ATOM     12  H1  UNL     1      -4.394  47.617  11.524  0.00  0.00    +0.119 HD
ATOM     13  H2  UNL     1      -3.839  46.931  12.933  0.00  0.00    +0.119 HD
ENDBRANCH  10  11
BRANCH  10  14
ATOM     14  C   UNL     1      -2.311  45.332  12.132  0.00  0.00    +0.322 C 
ATOM     15  O   UNL     1      -2.174  44.201  11.592  0.00  0.00    -0.249 OA
BRANCH  14  16
ATOM     16  OXT UNL     1      -2.099  45.478  13.500  0.00  0.00    -0.480 OA
ATOM     17  HXT UNL     1      -2.572  44.878  14.165  0.00  0.00    +0.295 HD
ENDBRANCH  14  16
ENDBRANCH  10  14
ENDBRANCH   1  10
TORSDOF 6
ENDMDL
MODEL 13
REMARK VINA RESULT:    -5.057      1.896      4.242
REMARK INTER + INTRA:          -6.855
REMARK INTER:                  -6.390
REMARK INTRA:                  -0.465
REMARK UNBOUND:                -0.467
REMARK  Name = AMQ
REMARK  7 active torsions:
REMARK  status: ('A' for Active; 'I' for Inactive)
REMARK    1  A    between atoms: N_1  and  CA_2
REMARK    2  A    between atoms: CA_2  and  C_3
REMARK    3  A    between atoms: CA_2  and  C_6
REMARK    4  A    between atoms: C_3  and  OXT_5
REMARK    5  A    between atoms: C_6  and  C_7
REMARK    6  A    between atoms: C_8  and  O_11
REMARK    7  A    between atoms: C_9  and  C_10
REMARK                            x       y       z     vdW  Elec       q    Type
REMARK                         _______ _______ _______ _____ _____    ______ ____
ROOT
ATOM      1  C   UNL     1      -1.732  48.560   8.898  0.00  0.00    +0.074 C 
ENDROOT
BRANCH   1   2
ATOM      2  C   UNL     1      -1.603  49.893   9.583  0.00  0.00    +0.059 A 
ATOM      3  C   UNL     1      -0.507  50.731   9.639  0.00  0.00    +0.256 A 
ATOM      4  C   UNL     1      -2.541  50.542  10.366  0.00  0.00    +0.141 A 
ATOM      5  C   UNL     1      -3.927  50.081  10.674  0.00  0.00    +0.089 C 
ATOM      6  N   UNL     1      -0.789  51.807  10.396  0.00  0.00    -0.040 NA
ATOM      7  O   UNL     1      -2.014  51.660  10.814  0.00  0.00    -0.356 OA
BRANCH   3   8
ATOM      8  O   UNL     1       0.727  50.528   9.028  0.00  0.00    -0.490 OA
ATOM      9  H   UNL     1       1.596  50.677   9.526  0.00  0.00    +0.294 HD
ENDBRANCH   3   8
ENDBRANCH   1   2
BRANCH   1  10
ATOM     10  CA  UNL     1      -1.783  48.703   7.365  0.00  0.00    +0.165 C 
BRANCH  10  11
ATOM     11  N   UNL     1      -2.939  47.990   6.815  0.00  0.00    -0.318 NA
ATOM     12  H1  UNL     1      -2.692  47.646   5.860  0.00  0.00    +0.119 HD
ATOM     13  H2  UNL     1      -3.100  47.130   7.387  0.00  0.00    +0.119 HD
ENDBRANCH  10  11
BRANCH  10  14
ATOM     14  C   UNL     1      -0.519  48.147   6.774  0.00  0.00    +0.322 C 
ATOM     15  O   UNL     1      -0.388  46.902   6.620  0.00  0.00    -0.249 OA
BRANCH  14  16
ATOM     16  OXT UNL     1       0.496  49.007   6.366  0.00  0.00    -0.480 OA
ATOM     17  HXT UNL     1       0.721  49.116   5.384  0.00  0.00    +0.295 HD
ENDBRANCH  14  16
ENDBRANCH  10  14
ENDBRANCH   1  10
TORSDOF 6
ENDMDL
MODEL 14
REMARK VINA RESULT:    -5.049      3.472      5.020
REMARK INTER + INTRA:          -6.844
REMARK INTER:                  -6.555
REMARK INTRA:                  -0.289
REMARK UNBOUND:                -0.467
REMARK  Name = AMQ
REMARK  7 active torsions:
REMARK  status: ('A' for Active; 'I' for Inactive)
REMARK    1  A    between atoms: N_1  and  CA_2
REMARK    2  A    between atoms: CA_2  and  C_3
REMARK    3  A    between atoms: CA_2  and  C_6
REMARK    4  A    between atoms: C_3  and  OXT_5
REMARK    5  A    between atoms: C_6  and  C_7
REMARK    6  A    between atoms: C_8  and  O_11
REMARK    7  A    between atoms: C_9  and  C_10
REMARK                            x       y       z     vdW  Elec       q    Type
REMARK                         _______ _______ _______ _____ _____    ______ ____
ROOT
ATOM      1  C   UNL     1      -2.235  47.293  10.911  0.00  0.00    +0.074 C 
ENDROOT
BRANCH   1   2
ATOM      2  C   UNL     1      -1.150  48.334  10.844  0.00  0.00    +0.059 A 
ATOM      3  C   UNL     1      -0.177  48.503   9.879  0.00  0.00    +0.256 A 
ATOM      4  C   UNL     1      -0.849  49.311  11.775  0.00  0.00    +0.141 A 
ATOM      5  C   UNL     1      -1.573  49.589  13.051  0.00  0.00    +0.089 C 
ATOM      6  N   UNL     1       0.634  49.522  10.218  0.00  0.00    -0.040 NA
ATOM      7  O   UNL     1       0.201  49.982  11.357  0.00  0.00    -0.356 OA
BRANCH   3   8
ATOM      8  O   UNL     1      -0.015  47.750   8.720  0.00  0.00    -0.490 OA
ATOM      9  H   UNL     1       0.516  48.099   7.931  0.00  0.00    +0.294 HD
ENDBRANCH   3   8
ENDBRANCH   1   2
BRANCH   1  10
ATOM     10  CA  UNL     1      -1.674  45.867  10.770  0.00  0.00    +0.165 C 
BRANCH  10  11
ATOM     11  N   UNL     1      -1.977  45.317   9.447  0.00  0.00    -0.318 NA
ATOM     12  H1  UNL     1      -1.090  44.961   9.024  0.00  0.00    +0.119 HD
ATOM     13  H2  UNL     1      -2.583  44.473   9.570  0.00  0.00    +0.119 HD
ENDBRANCH  10  11
BRANCH  10  14
ATOM     14  C   UNL     1      -2.278  44.990  11.831  0.00  0.00    +0.322 C 
ATOM     15  O   UNL     1      -2.146  45.290  13.049  0.00  0.00    -0.249 OA
BRANCH  14  16
ATOM     16  OXT UNL     1      -3.009  43.862  11.470  0.00  0.00    -0.480 OA
ATOM     17  HXT UNL     1      -4.014  43.835  11.589  0.00  0.00    +0.295 HD
ENDBRANCH  14  16
ENDBRANCH  10  14
ENDBRANCH   1  10
TORSDOF 6
ENDMDL
MODEL 15
REMARK VINA RESULT:    -5.022      3.853      4.727
REMARK INTER + INTRA:          -6.810
REMARK INTER:                  -6.522
REMARK INTRA:                  -0.288
REMARK UNBOUND:                -0.467
REMARK  Name = AMQ
REMARK  7 active torsions:
REMARK  status: ('A' for Active; 'I' for Inactive)
REMARK    1  A    between atoms: N_1  and  CA_2
REMARK    2  A    between atoms: CA_2  and  C_3
REMARK    3  A    between atoms: CA_2  and  C_6
REMARK    4  A    between atoms: C_3  and  OXT_5
REMARK    5  A    between atoms: C_6  and  C_7
REMARK    6  A    between atoms: C_8  and  O_11
REMARK    7  A    between atoms: C_9  and  C_10
REMARK                            x       y       z     vdW  Elec       q    Type
REMARK                         _______ _______ _______ _____ _____    ______ ____
ROOT
ATOM      1  C   UNL     1      -2.503  46.181  10.601  0.00  0.00    +0.074 C 
ENDROOT
BRANCH   1   2
ATOM      2  C   UNL     1      -1.239  46.879  10.178  0.00  0.00    +0.059 A 
ATOM      3  C   UNL     1      -0.127  46.347   9.556  0.00  0.00    +0.256 A 
ATOM      4  C   UNL     1      -0.887  48.201  10.384  0.00  0.00    +0.141 A 
ATOM      5  C   UNL     1      -1.713  49.259  11.038  0.00  0.00    +0.089 C 
ATOM      6  N   UNL     1       0.810  47.299   9.396  0.00  0.00    -0.040 NA
ATOM      7  O   UNL     1       0.320  48.395   9.902  0.00  0.00    -0.356 OA
BRANCH   3   8
ATOM      8  O   UNL     1       0.045  45.028   9.146  0.00  0.00    -0.490 OA
ATOM      9  H   UNL     1       0.199  44.282   9.813  0.00  0.00    +0.294 HD
ENDBRANCH   3   8
ENDBRANCH   1   2
BRANCH   1  10
ATOM     10  CA  UNL     1      -2.242  45.133  11.699  0.00  0.00    +0.165 C 
BRANCH  10  11
ATOM     11  N   UNL     1      -3.084  43.951  11.499  0.00  0.00    -0.318 NA
ATOM     12  H1  UNL     1      -3.337  43.890  10.487  0.00  0.00    +0.119 HD
ATOM     13  H2  UNL     1      -2.509  43.099  11.693  0.00  0.00    +0.119 HD
ENDBRANCH  10  11
BRANCH  10  14
ATOM     14  C   UNL     1      -2.535  45.740  13.042  0.00  0.00    +0.322 C 
ATOM     15  O   UNL     1      -1.980  45.281  14.077  0.00  0.00    -0.249 OA
BRANCH  14  16
ATOM     16  OXT UNL     1      -3.396  46.829  13.141  0.00  0.00    -0.480 OA
ATOM     17  HXT UNL     1      -4.399  46.696  13.189  0.00  0.00    +0.295 HD
ENDBRANCH  14  16
ENDBRANCH  10  14
ENDBRANCH   1  10
TORSDOF 6
ENDMDL
MODEL 16
REMARK VINA RESULT:    -5.001      2.906      3.707
REMARK INTER + INTRA:          -6.784
REMARK INTER:                  -6.489
REMARK INTRA:                  -0.294
REMARK UNBOUND:                -0.467
REMARK  Name = AMQ
REMARK  7 active torsions:
REMARK  status: ('A' for Active; 'I' for Inactive)
REMARK    1  A    between atoms: N_1  and  CA_2
REMARK    2  A    between atoms: CA_2  and  C_3
REMARK    3  A    between atoms: CA_2  and  C_6
REMARK    4  A    between atoms: C_3  and  OXT_5
REMARK    5  A    between atoms: C_6  and  C_7
REMARK    6  A    between atoms: C_8  and  O_11
REMARK    7  A    between atoms: C_9  and  C_10
REMARK                            x       y       z     vdW  Elec       q    Type
REMARK                         _______ _______ _______ _____ _____    ______ ____
ROOT
ATOM      1  C   UNL     1      -2.250  47.118   8.788  0.00  0.00    +0.074 C 
ENDROOT
BRANCH   1   2
ATOM      2  C   UNL     1      -1.312  47.580   7.706  0.00  0.00    +0.059 A 
ATOM      3  C   UNL     1      -1.013  46.968   6.505  0.00  0.00    +0.256 A 
ATOM      4  C   UNL     1      -0.490  48.692   7.710  0.00  0.00    +0.141 A 
ATOM      5  C   UNL     1      -0.382  49.725   8.783  0.00  0.00    +0.089 C 
ATOM      6  N   UNL     1      -0.085  47.683   5.843  0.00  0.00    -0.040 NA
ATOM      7  O   UNL     1       0.204  48.708   6.594  0.00  0.00    -0.356 OA
BRANCH   3   8
ATOM      8  O   UNL     1      -1.558  45.784   6.016  0.00  0.00    -0.490 OA
ATOM      9  H   UNL     1      -1.602  45.592   5.023  0.00  0.00    +0.294 HD
ENDBRANCH   3   8
ENDBRANCH   1   2
BRANCH   1  10
ATOM     10  CA  UNL     1      -1.846  45.743   9.351  0.00  0.00    +0.165 C 
BRANCH  10  11
ATOM     11  N   UNL     1      -2.812  44.715   8.954  0.00  0.00    -0.318 NA
ATOM     12  H1  UNL     1      -2.798  44.631   7.913  0.00  0.00    +0.119 HD
ATOM     13  H2  UNL     1      -2.477  43.791   9.311  0.00  0.00    +0.119 HD
ENDBRANCH  10  11
BRANCH  10  14
ATOM     14  C   UNL     1      -1.780  45.821  10.850  0.00  0.00    +0.322 C 
ATOM     15  O   UNL     1      -1.956  46.925  11.433  0.00  0.00    -0.249 OA
BRANCH  14  16
ATOM     16  OXT UNL     1      -1.554  44.670  11.598  0.00  0.00    -0.480 OA
ATOM     17  HXT UNL     1      -0.612  44.381  11.836  0.00  0.00    +0.295 HD
ENDBRANCH  14  16
ENDBRANCH  10  14
ENDBRANCH   1  10
TORSDOF 6
ENDMDL
MODEL 17
REMARK VINA RESULT:    -4.983      4.303      6.533
REMARK INTER + INTRA:          -6.761
REMARK INTER:                  -6.237
REMARK INTRA:                  -0.524
REMARK UNBOUND:                -0.467
REMARK  Name = AMQ
REMARK  7 active torsions:
REMARK  status: ('A' for Active; 'I' for Inactive)
REMARK    1  A    between atoms: N_1  and  CA_2
REMARK    2  A    between atoms: CA_2  and  C_3
REMARK    3  A    between atoms: CA_2  and  C_6
REMARK    4  A    between atoms: C_3  and  OXT_5
REMARK    5  A    between atoms: C_6  and  C_7
REMARK    6  A    between atoms: C_8  and  O_11
REMARK    7  A    between atoms: C_9  and  C_10
REMARK                            x       y       z     vdW  Elec       q    Type
REMARK                         _______ _______ _______ _____ _____    ______ ____
ROOT
ATOM      1  C   UNL     1      -3.111  47.035  11.424  0.00  0.00    +0.074 C 
ENDROOT
BRANCH   1   2
ATOM      2  C   UNL     1      -2.416  47.955  12.390  0.00  0.00    +0.059 A 
ATOM      3  C   UNL     1      -2.630  48.101  13.747  0.00  0.00    +0.256 A 
ATOM      4  C   UNL     1      -1.453  48.908  12.115  0.00  0.00    +0.141 A 
ATOM      5  C   UNL     1      -0.842  49.210  10.786  0.00  0.00    +0.089 C 
ATOM      6  N   UNL     1      -1.833  49.069  14.236  0.00  0.00    -0.040 NA
ATOM      7  O   UNL     1      -1.143  49.528  13.232  0.00  0.00    -0.356 OA
BRANCH   3   8
ATOM      8  O   UNL     1      -3.530  47.383  14.528  0.00  0.00    -0.490 OA
ATOM      9  H   UNL     1      -4.531  47.470  14.399  0.00  0.00    +0.294 HD
ENDBRANCH   3   8
ENDBRANCH   1   2
BRANCH   1  10
ATOM     10  CA  UNL     1      -2.389  45.681  11.298  0.00  0.00    +0.165 C 
BRANCH  10  11
ATOM     11  N   UNL     1      -2.090  45.380   9.895  0.00  0.00    -0.318 NA
ATOM     12  H1  UNL     1      -2.459  44.427   9.675  0.00  0.00    +0.119 HD
ATOM     13  H2  UNL     1      -2.637  46.036   9.292  0.00  0.00    +0.119 HD
ENDBRANCH  10  11
BRANCH  10  14
ATOM     14  C   UNL     1      -3.260  44.600  11.871  0.00  0.00    +0.322 C 
ATOM     15  O   UNL     1      -3.450  43.533  11.226  0.00  0.00    -0.249 OA
BRANCH  14  16
ATOM     16  OXT UNL     1      -3.836  44.762  13.128  0.00  0.00    -0.480 OA
ATOM     17  HXT UNL     1      -4.587  44.157  13.437  0.00  0.00    +0.295 HD
ENDBRANCH  14  16
ENDBRANCH  10  14
ENDBRANCH   1  10
TORSDOF 6
ENDMDL
MODEL 18
REMARK VINA RESULT:    -4.976      4.354      5.738
REMARK INTER + INTRA:          -6.752
REMARK INTER:                  -6.427
REMARK INTRA:                  -0.325
REMARK UNBOUND:                -0.467
REMARK  Name = AMQ
REMARK  7 active torsions:
REMARK  status: ('A' for Active; 'I' for Inactive)
REMARK    1  A    between atoms: N_1  and  CA_2
REMARK    2  A    between atoms: CA_2  and  C_3
REMARK    3  A    between atoms: CA_2  and  C_6
REMARK    4  A    between atoms: C_3  and  OXT_5
REMARK    5  A    between atoms: C_6  and  C_7
REMARK    6  A    between atoms: C_8  and  O_11
REMARK    7  A    between atoms: C_9  and  C_10
REMARK                            x       y       z     vdW  Elec       q    Type
REMARK                         _______ _______ _______ _____ _____    ______ ____
ROOT
ATOM      1  C   UNL     1      -2.884  48.501  12.344  0.00  0.00    +0.074 C 
ENDROOT
BRANCH   1   2
ATOM      2  C   UNL     1      -2.837  47.073  12.815  0.00  0.00    +0.059 A 
ATOM      3  C   UNL     1      -3.318  46.538  13.994  0.00  0.00    +0.256 A 
ATOM      4  C   UNL     1      -2.238  45.992  12.195  0.00  0.00    +0.141 A 
ATOM      5  C   UNL     1      -1.535  45.988  10.878  0.00  0.00    +0.089 C 
ATOM      6  N   UNL     1      -3.031  45.225  14.054  0.00  0.00    -0.040 NA
ATOM      7  O   UNL     1      -2.385  44.933  12.961  0.00  0.00    -0.356 OA
BRANCH   3   8
ATOM      8  O   UNL     1      -3.997  47.219  15.000  0.00  0.00    -0.490 OA
ATOM      9  H   UNL     1      -3.553  47.959  15.532  0.00  0.00    +0.294 HD
ENDBRANCH   3   8
ENDBRANCH   1   2
BRANCH   1  10
ATOM     10  CA  UNL     1      -1.881  49.391  13.102  0.00  0.00    +0.165 C 
BRANCH  10  11
ATOM     11  N   UNL     1      -2.544  50.584  13.635  0.00  0.00    -0.318 NA
ATOM     12  H1  UNL     1      -3.570  50.502  13.454  0.00  0.00    +0.119 HD
ATOM     13  H2  UNL     1      -2.444  50.581  14.676  0.00  0.00    +0.119 HD
ENDBRANCH  10  11
BRANCH  10  14
ATOM     14  C   UNL     1      -0.778  49.801  12.168  0.00  0.00    +0.322 C 
ATOM     15  O   UNL     1      -0.844  49.504  10.945  0.00  0.00    -0.249 OA
BRANCH  14  16
ATOM     16  OXT UNL     1       0.303  50.535  12.647  0.00  0.00    -0.480 OA
ATOM     17  HXT UNL     1       0.885  51.073  12.016  0.00  0.00    +0.295 HD
ENDBRANCH  14  16
ENDBRANCH  10  14
ENDBRANCH   1  10
TORSDOF 6
ENDMDL
MODEL 19
REMARK VINA RESULT:    -4.969      3.841      5.836
REMARK INTER + INTRA:          -6.744
REMARK INTER:                  -6.248
REMARK INTRA:                  -0.496
REMARK UNBOUND:                -0.467
REMARK  Name = AMQ
REMARK  7 active torsions:
REMARK  status: ('A' for Active; 'I' for Inactive)
REMARK    1  A    between atoms: N_1  and  CA_2
REMARK    2  A    between atoms: CA_2  and  C_3
REMARK    3  A    between atoms: CA_2  and  C_6
REMARK    4  A    between atoms: C_3  and  OXT_5
REMARK    5  A    between atoms: C_6  and  C_7
REMARK    6  A    between atoms: C_8  and  O_11
REMARK    7  A    between atoms: C_9  and  C_10
REMARK                            x       y       z     vdW  Elec       q    Type
REMARK                         _______ _______ _______ _____ _____    ______ ____
ROOT
ATOM      1  C   UNL     1      -2.816  47.211  10.619  0.00  0.00    +0.074 C 
ENDROOT
BRANCH   1   2
ATOM      2  C   UNL     1      -2.505  46.737  12.013  0.00  0.00    +0.059 A 
ATOM      3  C   UNL     1      -2.399  45.442  12.479  0.00  0.00    +0.256 A 
ATOM      4  C   UNL     1      -2.322  47.502  13.151  0.00  0.00    +0.141 A 
ATOM      5  C   UNL     1      -2.346  48.992  13.245  0.00  0.00    +0.089 C 
ATOM      6  N   UNL     1      -2.157  45.448  13.803  0.00  0.00    -0.040 NA
ATOM      7  O   UNL     1      -2.117  46.697  14.170  0.00  0.00    -0.356 OA
BRANCH   3   8
ATOM      8  O   UNL     1      -2.525  44.276  11.731  0.00  0.00    -0.490 OA
ATOM      9  H   UNL     1      -2.978  43.451  12.107  0.00  0.00    +0.294 HD
ENDBRANCH   3   8
ENDBRANCH   1   2
BRANCH   1  10
ATOM     10  CA  UNL     1      -1.539  47.548   9.828  0.00  0.00    +0.165 C 
BRANCH  10  11
ATOM     11  N   UNL     1      -1.776  48.664   8.909  0.00  0.00    -0.318 NA
ATOM     12  H1  UNL     1      -0.880  48.885   8.417  0.00  0.00    +0.119 HD
ATOM     13  H2  UNL     1      -2.431  48.343   8.160  0.00  0.00    +0.119 HD
ENDBRANCH  10  11
BRANCH  10  14
ATOM     14  C   UNL     1      -1.105  46.338   9.050  0.00  0.00    +0.322 C 
ATOM     15  O   UNL     1       0.038  46.306   8.517  0.00  0.00    -0.249 OA
BRANCH  14  16
ATOM     16  OXT UNL     1      -1.952  45.239   8.942  0.00  0.00    -0.480 OA
ATOM     17  HXT UNL     1      -2.804  45.292   8.397  0.00  0.00    +0.295 HD
ENDBRANCH  14  16
ENDBRANCH  10  14
ENDBRANCH   1  10
TORSDOF 6
ENDMDL
MODEL 20
REMARK VINA RESULT:    -4.839      3.587      4.767
REMARK INTER + INTRA:          -6.579
REMARK INTER:                  -6.130
REMARK INTRA:                  -0.448
REMARK UNBOUND:                -0.467
REMARK  Name = AMQ
REMARK  7 active torsions:
REMARK  status: ('A' for Active; 'I' for Inactive)
REMARK    1  A    between atoms: N_1  and  CA_2
REMARK    2  A    between atoms: CA_2  and  C_3
REMARK    3  A    between atoms: CA_2  and  C_6
REMARK    4  A    between atoms: C_3  and  OXT_5
REMARK    5  A    between atoms: C_6  and  C_7
REMARK    6  A    between atoms: C_8  and  O_11
REMARK    7  A    between atoms: C_9  and  C_10
REMARK                            x       y       z     vdW  Elec       q    Type
REMARK                         _______ _______ _______ _____ _____    ______ ____
ROOT
ATOM      1  C   UNL     1      -2.559  48.241  11.503  0.00  0.00    +0.074 C 
ENDROOT
BRANCH   1   2
ATOM      2  C   UNL     1      -2.306  46.810  11.894  0.00  0.00    +0.059 A 
ATOM      3  C   UNL     1      -1.761  45.793  11.136  0.00  0.00    +0.256 A 
ATOM      4  C   UNL     1      -2.628  46.184  13.084  0.00  0.00    +0.141 A 
ATOM      5  C   UNL     1      -3.264  46.806  14.283  0.00  0.00    +0.089 C 
ATOM      6  N   UNL     1      -1.753  44.647  11.842  0.00  0.00    -0.040 NA
ATOM      7  O   UNL     1      -2.278  44.919  13.002  0.00  0.00    -0.356 OA
BRANCH   3   8
ATOM      8  O   UNL     1      -1.287  45.890   9.831  0.00  0.00    -0.490 OA
ATOM      9  H   UNL     1      -0.745  45.147   9.407  0.00  0.00    +0.294 HD
ENDBRANCH   3   8
ENDBRANCH   1   2
BRANCH   1  10
ATOM     10  CA  UNL     1      -1.508  49.195  12.099  0.00  0.00    +0.165 C 
BRANCH  10  11
ATOM     11  N   UNL     1      -2.136  50.433  12.567  0.00  0.00    -0.318 NA
ATOM     12  H1  UNL     1      -2.559  50.921  11.746  0.00  0.00    +0.119 HD
ATOM     13  H2  UNL     1      -2.941  50.182  13.186  0.00  0.00    +0.119 HD
ENDBRANCH  10  11
BRANCH  10  14
ATOM     14  C   UNL     1      -0.480  49.516  11.052  0.00  0.00    +0.322 C 
ATOM     15  O   UNL     1       0.389  50.403  11.270  0.00  0.00    -0.249 OA
BRANCH  14  16
ATOM     16  OXT UNL     1      -0.466  48.813   9.850  0.00  0.00    -0.480 OA
ATOM     17  HXT UNL     1       0.291  48.931   9.188  0.00  0.00    +0.295 HD
ENDBRANCH  14  16
ENDBRANCH  10  14
ENDBRANCH   1  10
TORSDOF 6
ENDMDL
