MODEL 1
REMARK VINA RESULT:    -5.886      0.000      0.000
REMARK INTER + INTRA:          -7.115
REMARK INTER:                  -7.091
REMARK INTRA:                  -0.024
REMARK UNBOUND:                -0.024
REMARK  Name = BGC
REMARK  6 active torsions:
REMARK  status: ('A' for Active; 'I' for Inactive)
REMARK    1  A    between atoms: C_1  and  O_8
REMARK    2  A    between atoms: C_2  and  O_9
REMARK    3  A    between atoms: C_3  and  O_10
REMARK    4  A    between atoms: C_4  and  C_5
REMARK    5  A    between atoms: C_5  and  O_12
REMARK    6  A    between atoms: C_6  and  O_7
REMARK                            x       y       z     vdW  Elec       q    Type
REMARK                         _______ _______ _______ _____ _____    ______ ____
ROOT
ATOM      1  C   UNL     1      47.575  10.065  29.177  0.00  0.00    +0.201 C 
ATOM      2  C   UNL     1      48.653   9.938  28.086  0.00  0.00    +0.179 C 
ATOM      3  C   UNL     1      48.100  10.398  26.725  0.00  0.00    +0.177 C 
ATOM      4  C   UNL     1      46.714   9.778  26.417  0.00  0.00    +0.178 C 
ATOM      5  C   UNL     1      46.262   9.393  28.732  0.00  0.00    +0.279 C 
ATOM      6  O   UNL     1      45.785   9.893  27.491  0.00  0.00    -0.341 OA
ENDROOT
BRANCH   5   7
ATOM      7  O   UNL     1      46.382   7.994  28.697  0.00  0.00    -0.365 OA
ATOM      8  H   UNL     1      46.337   7.674  29.636  0.00  0.00    +0.213 HD
ENDBRANCH   5   7
BRANCH   1   9
ATOM      9  O   UNL     1      47.324  11.420  29.453  0.00  0.00    -0.384 OA
ATOM     10  H   UNL     1      47.687  11.602  30.360  0.00  0.00    +0.210 HD
ENDBRANCH   1   9
BRANCH   2  11
ATOM     11  O   UNL     1      49.106   8.611  27.993  0.00  0.00    -0.386 OA
ATOM     12  H   UNL     1      50.093   8.635  28.103  0.00  0.00    +0.210 HD
ENDBRANCH   2  11
BRANCH   3  13
ATOM     13  O   UNL     1      47.980  11.799  26.712  0.00  0.00    -0.386 OA
ATOM     14  H   UNL     1      47.419  12.035  25.928  0.00  0.00    +0.210 HD
ENDBRANCH   3  13
BRANCH   4  15
ATOM     15  C   UNL     1      46.787   8.354  25.832  0.00  0.00    +0.190 C 
BRANCH  15  16
ATOM     16  O   UNL     1      46.555   8.397  24.450  0.00  0.00    -0.392 OA
ATOM     17  H   UNL     1      46.386   9.349  24.228  0.00  0.00    +0.210 HD
ENDBRANCH  15  16
ENDBRANCH   4  15
TORSDOF 6
ENDMDL
MODEL 2
REMARK VINA RESULT:    -5.821      1.069      3.568
REMARK INTER + INTRA:          -7.037
REMARK INTER:                  -6.768
REMARK INTRA:                  -0.268
REMARK UNBOUND:                -0.024
REMARK  Name = BGC
REMARK  6 active torsions:
REMARK  status: ('A' for Active; 'I' for Inactive)
REMARK    1  A    between atoms: C_1  and  O_8
REMARK    2  A    between atoms: C_2  and  O_9
REMARK    3  A    between atoms: C_3  and  O_10
REMARK    4  A    between atoms: C_4  and  C_5
REMARK    5  A    between atoms: C_5  and  O_12
REMARK    6  A    between atoms: C_6  and  O_7
REMARK                            x       y       z     vdW  Elec       q    Type
REMARK                         _______ _______ _______ _____ _____    ______ ____
ROOT
ATOM      1  C   UNL     1      47.622   9.551  25.754  0.00  0.00    +0.201 C 
ATOM      2  C   UNL     1      48.666  10.488  26.388  0.00  0.00    +0.179 C 
ATOM      3  C   UNL     1      49.134   9.934  27.745  0.00  0.00    +0.177 C 
ATOM      4  C   UNL     1      47.946   9.500  28.641  0.00  0.00    +0.178 C 
ATOM      5  C   UNL     1      46.501   9.220  26.758  0.00  0.00    +0.279 C 
ATOM      6  O   UNL     1      46.997   8.675  27.971  0.00  0.00    -0.341 OA
ENDROOT
BRANCH   5   7
ATOM      7  O   UNL     1      45.682  10.335  27.006  0.00  0.00    -0.365 OA
ATOM      8  H   UNL     1      45.046  10.404  26.246  0.00  0.00    +0.213 HD
ENDBRANCH   5   7
BRANCH   1   9
ATOM      9  O   UNL     1      48.233   8.355  25.341  0.00  0.00    -0.384 OA
ATOM     10  H   UNL     1      48.582   8.511  24.423  0.00  0.00    +0.210 HD
ENDBRANCH   1   9
BRANCH   2  11
ATOM     11  O   UNL     1      48.134  11.777  26.555  0.00  0.00    -0.386 OA
ATOM     12  H   UNL     1      48.368  12.069  27.476  0.00  0.00    +0.210 HD
ENDBRANCH   2  11
BRANCH   3  13
ATOM     13  O   UNL     1      49.973   8.825  27.541  0.00  0.00    -0.386 OA
ATOM     14  H   UNL     1      50.894   9.175  27.427  0.00  0.00    +0.210 HD
ENDBRANCH   3  13
BRANCH   4  15
ATOM     15  C   UNL     1      47.294  10.664  29.414  0.00  0.00    +0.190 C 
BRANCH  15  16
ATOM     16  O   UNL     1      48.247  11.661  29.662  0.00  0.00    -0.392 OA
ATOM     17  H   UNL     1      48.022  12.415  29.057  0.00  0.00    +0.210 HD
ENDBRANCH  15  16
ENDBRANCH   4  15
TORSDOF 6
ENDMDL
MODEL 3
REMARK VINA RESULT:    -5.651      1.290      3.132
REMARK INTER + INTRA:          -6.832
REMARK INTER:                  -6.592
REMARK INTRA:                  -0.240
REMARK UNBOUND:                -0.024
REMARK  Name = BGC
REMARK  6 active torsions:
REMARK  status: ('A' for Active; 'I' for Inactive)
REMARK    1  A    between atoms: C_1  and  O_8
REMARK    2  A    between atoms: C_2  and  O_9
REMARK    3  A    between atoms: C_3  and  O_10
REMARK    4  A    between atoms: C_4  and  C_5
REMARK    5  A    between atoms: C_5  and  O_12
REMARK    6  A    between atoms: C_6  and  O_7
REMARK                            x       y       z     vdW  Elec       q    Type
REMARK                         _______ _______ _______ _____ _____    ______ ____
ROOT
ATOM      1  C   UNL     1      48.589  10.636  26.371  0.00  0.00    +0.201 C 
ATOM      2  C   UNL     1      47.613   9.569  25.845  0.00  0.00    +0.179 C 
ATOM      3  C   UNL     1      46.455   9.361  26.838  0.00  0.00    +0.177 C 
ATOM      4  C   UNL     1      46.957   9.196  28.295  0.00  0.00    +0.178 C 
ATOM      5  C   UNL     1      49.007  10.330  27.822  0.00  0.00    +0.279 C 
ATOM      6  O   UNL     1      47.894  10.192  28.693  0.00  0.00    -0.341 OA
ENDROOT
BRANCH   5   7
ATOM      7  O   UNL     1      49.843   9.204  27.895  0.00  0.00    -0.365 OA
ATOM      8  H   UNL     1      49.258   8.416  28.045  0.00  0.00    +0.213 HD
ENDBRANCH   5   7
BRANCH   1   9
ATOM      9  O   UNL     1      47.989  11.906  26.326  0.00  0.00    -0.384 OA
ATOM     10  H   UNL     1      48.302  12.401  27.129  0.00  0.00    +0.210 HD
ENDBRANCH   1   9
BRANCH   2  11
ATOM     11  O   UNL     1      48.281   8.352  25.630  0.00  0.00    -0.386 OA
ATOM     12  H   UNL     1      47.853   7.923  24.842  0.00  0.00    +0.210 HD
ENDBRANCH   2  11
BRANCH   3  13
ATOM     13  O   UNL     1      45.582  10.462  26.784  0.00  0.00    -0.386 OA
ATOM     14  H   UNL     1      45.064  10.463  27.631  0.00  0.00    +0.210 HD
ENDBRANCH   3  13
BRANCH   4  15
ATOM     15  C   UNL     1      47.418   7.764  28.634  0.00  0.00    +0.190 C 
BRANCH  15  16
ATOM     16  O   UNL     1      48.016   7.747  29.901  0.00  0.00    -0.392 OA
ATOM     17  H   UNL     1      48.623   8.532  29.930  0.00  0.00    +0.210 HD
ENDBRANCH  15  16
ENDBRANCH   4  15
TORSDOF 6
ENDMDL
MODEL 4
REMARK VINA RESULT:    -5.611      1.310      2.387
REMARK INTER + INTRA:          -6.783
REMARK INTER:                  -6.554
REMARK INTRA:                  -0.229
REMARK UNBOUND:                -0.024
REMARK  Name = BGC
REMARK  6 active torsions:
REMARK  status: ('A' for Active; 'I' for Inactive)
REMARK    1  A    between atoms: C_1  and  O_8
REMARK    2  A    between atoms: C_2  and  O_9
REMARK    3  A    between atoms: C_3  and  O_10
REMARK    4  A    between atoms: C_4  and  C_5
REMARK    5  A    between atoms: C_5  and  O_12
REMARK    6  A    between atoms: C_6  and  O_7
REMARK                            x       y       z     vdW  Elec       q    Type
REMARK                         _______ _______ _______ _____ _____    ______ ____
ROOT
ATOM      1  C   UNL     1      48.065  10.653  28.254  0.00  0.00    +0.201 C 
ATOM      2  C   UNL     1      48.040   9.178  28.689  0.00  0.00    +0.179 C 
ATOM      3  C   UNL     1      48.763   8.298  27.653  0.00  0.00    +0.177 C 
ATOM      4  C   UNL     1      48.311   8.609  26.204  0.00  0.00    +0.178 C 
ATOM      5  C   UNL     1      47.578  10.805  26.799  0.00  0.00    +0.279 C 
ATOM      6  O   UNL     1      48.314   9.999  25.891  0.00  0.00    -0.341 OA
ENDROOT
BRANCH   5   7
ATOM      7  O   UNL     1      46.200  10.559  26.686  0.00  0.00    -0.365 OA
ATOM      8  H   UNL     1      46.087   9.840  26.010  0.00  0.00    +0.213 HD
ENDBRANCH   5   7
BRANCH   1   9
ATOM      9  O   UNL     1      49.369  11.167  28.355  0.00  0.00    -0.384 OA
ATOM     10  H   UNL     1      49.372  12.042  27.883  0.00  0.00    +0.210 HD
ENDBRANCH   1   9
BRANCH   2  11
ATOM     11  O   UNL     1      46.717   8.734  28.852  0.00  0.00    -0.386 OA
ATOM     12  H   UNL     1      46.240   9.433  29.373  0.00  0.00    +0.210 HD
ENDBRANCH   2  11
BRANCH   3  13
ATOM     13  O   UNL     1      50.151   8.501  27.745  0.00  0.00    -0.386 OA
ATOM     14  H   UNL     1      50.582   7.840  27.144  0.00  0.00    +0.210 HD
ENDBRANCH   3  13
BRANCH   4  15
ATOM     15  C   UNL     1      47.004   7.901  25.796  0.00  0.00    +0.190 C 
BRANCH  15  16
ATOM     16  O   UNL     1      46.621   8.316  24.514  0.00  0.00    -0.392 OA
ATOM     17  H   UNL     1      45.692   7.990  24.384  0.00  0.00    +0.210 HD
ENDBRANCH  15  16
ENDBRANCH   4  15
TORSDOF 6
ENDMDL
MODEL 5
REMARK VINA RESULT:    -5.530      1.126      2.892
REMARK INTER + INTRA:          -6.686
REMARK INTER:                  -6.481
REMARK INTRA:                  -0.205
REMARK UNBOUND:                -0.024
REMARK  Name = BGC
REMARK  6 active torsions:
REMARK  status: ('A' for Active; 'I' for Inactive)
REMARK    1  A    between atoms: C_1  and  O_8
REMARK    2  A    between atoms: C_2  and  O_9
REMARK    3  A    between atoms: C_3  and  O_10
REMARK    4  A    between atoms: C_4  and  C_5
REMARK    5  A    between atoms: C_5  and  O_12
REMARK    6  A    between atoms: C_6  and  O_7
REMARK                            x       y       z     vdW  Elec       q    Type
REMARK                         _______ _______ _______ _____ _____    ______ ____
ROOT
ATOM      1  C   UNL     1      47.754  10.566  28.474  0.00  0.00    +0.201 C 
ATOM      2  C   UNL     1      46.473   9.937  27.902  0.00  0.00    +0.179 C 
ATOM      3  C   UNL     1      46.740   8.494  27.438  0.00  0.00    +0.177 C 
ATOM      4  C   UNL     1      48.021   8.386  26.573  0.00  0.00    +0.178 C 
ATOM      5  C   UNL     1      48.935  10.391  27.499  0.00  0.00    +0.279 C 
ATOM      6  O   UNL     1      49.154   9.033  27.145  0.00  0.00    -0.341 OA
ENDROOT
BRANCH   5   7
ATOM      7  O   UNL     1      48.784  11.190  26.354  0.00  0.00    -0.365 OA
ATOM      8  H   UNL     1      49.154  12.085  26.573  0.00  0.00    +0.213 HD
ENDBRANCH   5   7
BRANCH   1   9
ATOM      9  O   UNL     1      48.083   9.964  29.701  0.00  0.00    -0.384 OA
ATOM     10  H   UNL     1      47.254   9.535  30.043  0.00  0.00    +0.210 HD
ENDBRANCH   1   9
BRANCH   2  11
ATOM     11  O   UNL     1      45.985  10.701  26.828  0.00  0.00    -0.386 OA
ATOM     12  H   UNL     1      46.777  11.057  26.344  0.00  0.00    +0.210 HD
ENDBRANCH   2  11
BRANCH   3  13
ATOM     13  O   UNL     1      46.880   7.655  28.557  0.00  0.00    -0.386 OA
ATOM     14  H   UNL     1      46.765   8.223  29.362  0.00  0.00    +0.210 HD
ENDBRANCH   3  13
BRANCH   4  15
ATOM     15  C   UNL     1      47.802   8.752  25.091  0.00  0.00    +0.190 C 
BRANCH  15  16
ATOM     16  O   UNL     1      46.538   8.312  24.677  0.00  0.00    -0.392 OA
ATOM     17  H   UNL     1      46.676   7.857  23.805  0.00  0.00    +0.210 HD
ENDBRANCH  15  16
ENDBRANCH   4  15
TORSDOF 6
ENDMDL
MODEL 6
REMARK VINA RESULT:    -5.443      1.588      3.090
REMARK INTER + INTRA:          -6.581
REMARK INTER:                  -6.304
REMARK INTRA:                  -0.277
REMARK UNBOUND:                -0.024
REMARK  Name = BGC
REMARK  6 active torsions:
REMARK  status: ('A' for Active; 'I' for Inactive)
REMARK    1  A    between atoms: C_1  and  O_8
REMARK    2  A    between atoms: C_2  and  O_9
REMARK    3  A    between atoms: C_3  and  O_10
REMARK    4  A    between atoms: C_4  and  C_5
REMARK    5  A    between atoms: C_5  and  O_12
REMARK    6  A    between atoms: C_6  and  O_7
REMARK                            x       y       z     vdW  Elec       q    Type
REMARK                         _______ _______ _______ _____ _____    ______ ____
ROOT
ATOM      1  C   UNL     1      49.284  10.381  26.952  0.00  0.00    +0.201 C 
ATOM      2  C   UNL     1      47.898  10.924  27.344  0.00  0.00    +0.179 C 
ATOM      3  C   UNL     1      47.503  10.431  28.747  0.00  0.00    +0.177 C 
ATOM      4  C   UNL     1      47.734   8.908  28.919  0.00  0.00    +0.178 C 
ATOM      5  C   UNL     1      49.356   8.856  27.165  0.00  0.00    +0.279 C 
ATOM      6  O   UNL     1      49.021   8.474  28.491  0.00  0.00    -0.341 OA
ENDROOT
BRANCH   5   7
ATOM      7  O   UNL     1      48.570   8.164  26.229  0.00  0.00    -0.365 OA
ATOM      8  H   UNL     1      48.337   7.289  26.635  0.00  0.00    +0.213 HD
ENDBRANCH   5   7
BRANCH   1   9
ATOM      9  O   UNL     1      50.282  10.998  27.725  0.00  0.00    -0.384 OA
ATOM     10  H   UNL     1      49.880  11.194  28.613  0.00  0.00    +0.210 HD
ENDBRANCH   1   9
BRANCH   2  11
ATOM     11  O   UNL     1      46.930  10.525  26.407  0.00  0.00    -0.386 OA
ATOM     12  H   UNL     1      46.853  11.258  25.741  0.00  0.00    +0.210 HD
ENDBRANCH   2  11
BRANCH   3  13
ATOM     13  O   UNL     1      48.256  11.113  29.718  0.00  0.00    -0.386 OA
ATOM     14  H   UNL     1      47.846  10.911  30.599  0.00  0.00    +0.210 HD
ENDBRANCH   3  13
BRANCH   4  15
ATOM     15  C   UNL     1      46.587   8.040  28.363  0.00  0.00    +0.190 C 
BRANCH  15  16
ATOM     16  O   UNL     1      45.407   8.794  28.307  0.00  0.00    -0.392 OA
ATOM     17  H   UNL     1      44.769   8.353  28.927  0.00  0.00    +0.210 HD
ENDBRANCH  15  16
ENDBRANCH   4  15
TORSDOF 6
ENDMDL
MODEL 7
REMARK VINA RESULT:    -5.422      1.527      3.370
REMARK INTER + INTRA:          -6.556
REMARK INTER:                  -6.279
REMARK INTRA:                  -0.277
REMARK UNBOUND:                -0.024
REMARK  Name = BGC
REMARK  6 active torsions:
REMARK  status: ('A' for Active; 'I' for Inactive)
REMARK    1  A    between atoms: C_1  and  O_8
REMARK    2  A    between atoms: C_2  and  O_9
REMARK    3  A    between atoms: C_3  and  O_10
REMARK    4  A    between atoms: C_4  and  C_5
REMARK    5  A    between atoms: C_5  and  O_12
REMARK    6  A    between atoms: C_6  and  O_7
REMARK                            x       y       z     vdW  Elec       q    Type
REMARK                         _______ _______ _______ _____ _____    ______ ____
ROOT
ATOM      1  C   UNL     1      46.451   7.752  27.577  0.00  0.00    +0.201 C 
ATOM      2  C   UNL     1      45.919   8.980  26.819  0.00  0.00    +0.179 C 
ATOM      3  C   UNL     1      46.850   9.335  25.646  0.00  0.00    +0.177 C 
ATOM      4  C   UNL     1      48.340   9.365  26.071  0.00  0.00    +0.178 C 
ATOM      5  C   UNL     1      47.937   7.933  27.942  0.00  0.00    +0.279 C 
ATOM      6  O   UNL     1      48.747   8.218  26.810  0.00  0.00    -0.341 OA
ENDROOT
BRANCH   5   7
ATOM      7  O   UNL     1      48.111   8.907  28.940  0.00  0.00    -0.365 OA
ATOM      8  H   UNL     1      47.721   8.540  29.776  0.00  0.00    +0.213 HD
ENDBRANCH   5   7
BRANCH   1   9
ATOM      9  O   UNL     1      46.313   6.597  26.788  0.00  0.00    -0.384 OA
ATOM     10  H   UNL     1      46.972   5.935  27.127  0.00  0.00    +0.210 HD
ENDBRANCH   1   9
BRANCH   2  11
ATOM     11  O   UNL     1      45.799  10.080  27.684  0.00  0.00    -0.386 OA
ATOM     12  H   UNL     1      46.717  10.431  27.835  0.00  0.00    +0.210 HD
ENDBRANCH   2  11
BRANCH   3  13
ATOM     13  O   UNL     1      46.695   8.393  24.615  0.00  0.00    -0.386 OA
ATOM     14  H   UNL     1      46.988   8.831  23.774  0.00  0.00    +0.210 HD
ENDBRANCH   3  13
BRANCH   4  15
ATOM     15  C   UNL     1      48.771  10.691  26.729  0.00  0.00    +0.190 C 
BRANCH  15  16
ATOM     16  O   UNL     1      47.947  11.732  26.281  0.00  0.00    -0.392 OA
ATOM     17  H   UNL     1      47.532  12.124  27.093  0.00  0.00    +0.210 HD
ENDBRANCH  15  16
ENDBRANCH   4  15
TORSDOF 6
ENDMDL
MODEL 8
REMARK VINA RESULT:    -5.313      1.909      3.948
REMARK INTER + INTRA:          -6.425
REMARK INTER:                  -6.147
REMARK INTRA:                  -0.277
REMARK UNBOUND:                -0.024
REMARK  Name = BGC
REMARK  6 active torsions:
REMARK  status: ('A' for Active; 'I' for Inactive)
REMARK    1  A    between atoms: C_1  and  O_8
REMARK    2  A    between atoms: C_2  and  O_9
REMARK    3  A    between atoms: C_3  and  O_10
REMARK    4  A    between atoms: C_4  and  C_5
REMARK    5  A    between atoms: C_5  and  O_12
REMARK    6  A    between atoms: C_6  and  O_7
REMARK                            x       y       z     vdW  Elec       q    Type
REMARK                         _______ _______ _______ _____ _____    ______ ____
ROOT
ATOM      1  C   UNL     1      43.976   8.169  26.368  0.00  0.00    +0.201 C 
ATOM      2  C   UNL     1      44.605   9.322  25.566  0.00  0.00    +0.179 C 
ATOM      3  C   UNL     1      46.126   9.127  25.443  0.00  0.00    +0.177 C 
ATOM      4  C   UNL     1      46.783   8.779  26.803  0.00  0.00    +0.178 C 
ATOM      5  C   UNL     1      44.726   7.951  27.696  0.00  0.00    +0.279 C 
ATOM      6  O   UNL     1      46.117   7.736  27.509  0.00  0.00    -0.341 OA
ENDROOT
BRANCH   5   7
ATOM      7  O   UNL     1      44.498   9.004  28.598  0.00  0.00    -0.365 OA
ATOM      8  H   UNL     1      44.016   8.620  29.377  0.00  0.00    +0.213 HD
ENDBRANCH   5   7
BRANCH   1   9
ATOM      9  O   UNL     1      44.017   6.980  25.620  0.00  0.00    -0.384 OA
ATOM     10  H   UNL     1      44.702   7.108  24.911  0.00  0.00    +0.210 HD
ENDBRANCH   1   9
BRANCH   2  11
ATOM     11  O   UNL     1      44.329  10.556  26.178  0.00  0.00    -0.386 OA
ATOM     12  H   UNL     1      44.665  11.263  25.567  0.00  0.00    +0.210 HD
ENDBRANCH   2  11
BRANCH   3  13
ATOM     13  O   UNL     1      46.399   8.091  24.533  0.00  0.00    -0.386 OA
ATOM     14  H   UNL     1      45.940   8.321  23.684  0.00  0.00    +0.210 HD
ENDBRANCH   3  13
BRANCH   4  15
ATOM     15  C   UNL     1      47.077  10.010  27.683  0.00  0.00    +0.190 C 
BRANCH  15  16
ATOM     16  O   UNL     1      47.178  11.154  26.879  0.00  0.00    -0.392 OA
ATOM     17  H   UNL     1      46.420  11.109  26.240  0.00  0.00    +0.210 HD
ENDBRANCH  15  16
ENDBRANCH   4  15
TORSDOF 6
ENDMDL
MODEL 9
REMARK VINA RESULT:    -5.310      1.201      2.995
REMARK INTER + INTRA:          -6.421
REMARK INTER:                  -6.220
REMARK INTRA:                  -0.201
REMARK UNBOUND:                -0.024
REMARK  Name = BGC
REMARK  6 active torsions:
REMARK  status: ('A' for Active; 'I' for Inactive)
REMARK    1  A    between atoms: C_1  and  O_8
REMARK    2  A    between atoms: C_2  and  O_9
REMARK    3  A    between atoms: C_3  and  O_10
REMARK    4  A    between atoms: C_4  and  C_5
REMARK    5  A    between atoms: C_5  and  O_12
REMARK    6  A    between atoms: C_6  and  O_7
REMARK                            x       y       z     vdW  Elec       q    Type
REMARK                         _______ _______ _______ _____ _____    ______ ____
ROOT
ATOM      1  C   UNL     1      48.737  10.041  28.088  0.00  0.00    +0.201 C 
ATOM      2  C   UNL     1      47.609   9.766  29.097  0.00  0.00    +0.179 C 
ATOM      3  C   UNL     1      46.702   8.627  28.596  0.00  0.00    +0.177 C 
ATOM      4  C   UNL     1      46.287   8.820  27.115  0.00  0.00    +0.178 C 
ATOM      5  C   UNL     1      48.170  10.222  26.666  0.00  0.00    +0.279 C 
ATOM      6  O   UNL     1      47.378   9.119  26.250  0.00  0.00    -0.341 OA
ENDROOT
BRANCH   5   7
ATOM      7  O   UNL     1      47.458  11.426  26.542  0.00  0.00    -0.365 OA
ATOM      8  H   UNL     1      46.894  11.516  27.355  0.00  0.00    +0.213 HD
ENDBRANCH   5   7
BRANCH   1   9
ATOM      9  O   UNL     1      49.653   8.975  28.081  0.00  0.00    -0.384 OA
ATOM     10  H   UNL     1      49.211   8.218  27.613  0.00  0.00    +0.210 HD
ENDBRANCH   1   9
BRANCH   2  11
ATOM     11  O   UNL     1      46.845  10.925  29.312  0.00  0.00    -0.386 OA
ATOM     12  H   UNL     1      46.919  11.477  28.488  0.00  0.00    +0.210 HD
ENDBRANCH   2  11
BRANCH   3  13
ATOM     13  O   UNL     1      47.373   7.398  28.719  0.00  0.00    -0.386 OA
ATOM     14  H   UNL     1      46.911   6.886  29.433  0.00  0.00    +0.210 HD
ENDBRANCH   3  13
BRANCH   4  15
ATOM     15  C   UNL     1      45.088   9.770  26.925  0.00  0.00    +0.190 C 
BRANCH  15  16
ATOM     16  O   UNL     1      44.792   9.892  25.561  0.00  0.00    -0.392 OA
ATOM     17  H   UNL     1      44.198   9.129  25.339  0.00  0.00    +0.210 HD
ENDBRANCH  15  16
ENDBRANCH   4  15
TORSDOF 6
ENDMDL
MODEL 10
REMARK VINA RESULT:    -5.300      1.465      2.575
REMARK INTER + INTRA:          -6.408
REMARK INTER:                  -6.137
REMARK INTRA:                  -0.272
REMARK UNBOUND:                -0.024
REMARK  Name = BGC
REMARK  6 active torsions:
REMARK  status: ('A' for Active; 'I' for Inactive)
REMARK    1  A    between atoms: C_1  and  O_8
REMARK    2  A    between atoms: C_2  and  O_9
REMARK    3  A    between atoms: C_3  and  O_10
REMARK    4  A    between atoms: C_4  and  C_5
REMARK    5  A    between atoms: C_5  and  O_12
REMARK    6  A    between atoms: C_6  and  O_7
REMARK                            x       y       z     vdW  Elec       q    Type
REMARK                         _______ _______ _______ _____ _____    ______ ____
ROOT
ATOM      1  C   UNL     1      46.489   9.842  27.838  0.00  0.00    +0.201 C 
ATOM      2  C   UNL     1      47.774  10.582  28.251  0.00  0.00    +0.179 C 
ATOM      3  C   UNL     1      48.782  10.603  27.089  0.00  0.00    +0.177 C 
ATOM      4  C   UNL     1      48.955   9.206  26.440  0.00  0.00    +0.178 C 
ATOM      5  C   UNL     1      46.820   8.469  27.223  0.00  0.00    +0.279 C 
ATOM      6  O   UNL     1      47.723   8.563  26.130  0.00  0.00    -0.341 OA
ENDROOT
BRANCH   5   7
ATOM      7  O   UNL     1      47.297   7.569  28.190  0.00  0.00    -0.365 OA
ATOM      8  H   UNL     1      47.202   8.014  29.073  0.00  0.00    +0.213 HD
ENDBRANCH   5   7
BRANCH   1   9
ATOM      9  O   UNL     1      45.774  10.603  26.897  0.00  0.00    -0.384 OA
ATOM     10  H   UNL     1      45.383   9.962  26.245  0.00  0.00    +0.210 HD
ENDBRANCH   1   9
BRANCH   2  11
ATOM     11  O   UNL     1      48.354   9.972  29.376  0.00  0.00    -0.386 OA
ATOM     12  H   UNL     1      48.997   9.295  29.038  0.00  0.00    +0.210 HD
ENDBRANCH   2  11
BRANCH   3  13
ATOM     13  O   UNL     1      48.351  11.507  26.103  0.00  0.00    -0.386 OA
ATOM     14  H   UNL     1      48.338  12.407  26.520  0.00  0.00    +0.210 HD
ENDBRANCH   3  13
BRANCH   4  15
ATOM     15  C   UNL     1      49.941   8.290  27.193  0.00  0.00    +0.190 C 
BRANCH  15  16
ATOM     16  O   UNL     1      50.897   9.068  27.859  0.00  0.00    -0.392 OA
ATOM     17  H   UNL     1      51.080   8.605  28.717  0.00  0.00    +0.210 HD
ENDBRANCH  15  16
ENDBRANCH   4  15
TORSDOF 6
ENDMDL
MODEL 11
REMARK VINA RESULT:    -5.259      1.216      3.725
REMARK INTER + INTRA:          -6.360
REMARK INTER:                  -6.301
REMARK INTRA:                  -0.058
REMARK UNBOUND:                -0.024
REMARK  Name = BGC
REMARK  6 active torsions:
REMARK  status: ('A' for Active; 'I' for Inactive)
REMARK    1  A    between atoms: C_1  and  O_8
REMARK    2  A    between atoms: C_2  and  O_9
REMARK    3  A    between atoms: C_3  and  O_10
REMARK    4  A    between atoms: C_4  and  C_5
REMARK    5  A    between atoms: C_5  and  O_12
REMARK    6  A    between atoms: C_6  and  O_7
REMARK                            x       y       z     vdW  Elec       q    Type
REMARK                         _______ _______ _______ _____ _____    ______ ____
ROOT
ATOM      1  C   UNL     1      47.118   7.979  25.616  0.00  0.00    +0.201 C 
ATOM      2  C   UNL     1      46.181   8.132  26.827  0.00  0.00    +0.179 C 
ATOM      3  C   UNL     1      45.918   9.619  27.123  0.00  0.00    +0.177 C 
ATOM      4  C   UNL     1      47.226  10.451  27.139  0.00  0.00    +0.178 C 
ATOM      5  C   UNL     1      48.376   8.854  25.783  0.00  0.00    +0.279 C 
ATOM      6  O   UNL     1      48.065  10.220  26.012  0.00  0.00    -0.341 OA
ENDROOT
BRANCH   5   7
ATOM      7  O   UNL     1      49.223   8.357  26.788  0.00  0.00    -0.365 OA
ATOM      8  H   UNL     1      48.810   8.595  27.660  0.00  0.00    +0.213 HD
ENDBRANCH   5   7
BRANCH   1   9
ATOM      9  O   UNL     1      46.453   8.357  24.438  0.00  0.00    -0.384 OA
ATOM     10  H   UNL     1      46.147   7.519  23.998  0.00  0.00    +0.210 HD
ENDBRANCH   1   9
BRANCH   2  11
ATOM     11  O   UNL     1      46.732   7.509  27.959  0.00  0.00    -0.386 OA
ATOM     12  H   UNL     1      46.213   7.826  28.745  0.00  0.00    +0.210 HD
ENDBRANCH   2  11
BRANCH   3  13
ATOM     13  O   UNL     1      45.059  10.152  26.147  0.00  0.00    -0.386 OA
ATOM     14  H   UNL     1      45.437   9.909  25.262  0.00  0.00    +0.210 HD
ENDBRANCH   3  13
BRANCH   4  15
ATOM     15  C   UNL     1      47.986  10.385  28.479  0.00  0.00    +0.190 C 
BRANCH  15  16
ATOM     16  O   UNL     1      48.716  11.566  28.668  0.00  0.00    -0.392 OA
ATOM     17  H   UNL     1      49.356  11.619  27.911  0.00  0.00    +0.210 HD
ENDBRANCH  15  16
ENDBRANCH   4  15
TORSDOF 6
ENDMDL
MODEL 12
REMARK VINA RESULT:    -5.229      1.427      3.467
REMARK INTER + INTRA:          -6.323
REMARK INTER:                  -6.090
REMARK INTRA:                  -0.233
REMARK UNBOUND:                -0.024
REMARK  Name = BGC
REMARK  6 active torsions:
REMARK  status: ('A' for Active; 'I' for Inactive)
REMARK    1  A    between atoms: C_1  and  O_8
REMARK    2  A    between atoms: C_2  and  O_9
REMARK    3  A    between atoms: C_3  and  O_10
REMARK    4  A    between atoms: C_4  and  C_5
REMARK    5  A    between atoms: C_5  and  O_12
REMARK    6  A    between atoms: C_6  and  O_7
REMARK                            x       y       z     vdW  Elec       q    Type
REMARK                         _______ _______ _______ _____ _____    ______ ____
ROOT
ATOM      1  C   UNL     1      45.830   7.846  26.762  0.00  0.00    +0.201 C 
ATOM      2  C   UNL     1      46.930   7.673  25.700  0.00  0.00    +0.179 C 
ATOM      3  C   UNL     1      48.301   8.072  26.273  0.00  0.00    +0.177 C 
ATOM      4  C   UNL     1      48.251   9.432  27.015  0.00  0.00    +0.178 C 
ATOM      5  C   UNL     1      45.899   9.247  27.400  0.00  0.00    +0.279 C 
ATOM      6  O   UNL     1      47.178   9.536  27.946  0.00  0.00    -0.341 OA
ENDROOT
BRANCH   5   7
ATOM      7  O   UNL     1      45.502  10.248  26.498  0.00  0.00    -0.365 OA
ATOM      8  H   UNL     1      46.209  10.311  25.804  0.00  0.00    +0.213 HD
ENDBRANCH   5   7
BRANCH   1   9
ATOM      9  O   UNL     1      45.973   6.878  27.771  0.00  0.00    -0.384 OA
ATOM     10  H   UNL     1      46.216   7.363  28.604  0.00  0.00    +0.210 HD
ENDBRANCH   1   9
BRANCH   2  11
ATOM     11  O   UNL     1      46.644   8.446  24.563  0.00  0.00    -0.386 OA
ATOM     12  H   UNL     1      47.508   8.613  24.102  0.00  0.00    +0.210 HD
ENDBRANCH   2  11
BRANCH   3  13
ATOM     13  O   UNL     1      48.746   7.086  27.171  0.00  0.00    -0.386 OA
ATOM     14  H   UNL     1      49.737   7.135  27.189  0.00  0.00    +0.210 HD
ENDBRANCH   3  13
BRANCH   4  15
ATOM     15  C   UNL     1      48.359  10.653  26.080  0.00  0.00    +0.190 C 
BRANCH  15  16
ATOM     16  O   UNL     1      48.028  11.819  26.783  0.00  0.00    -0.392 OA
ATOM     17  H   UNL     1      47.053  11.953  26.652  0.00  0.00    +0.210 HD
ENDBRANCH  15  16
ENDBRANCH   4  15
TORSDOF 6
ENDMDL
MODEL 13
REMARK VINA RESULT:    -5.212      1.889      3.246
REMARK INTER + INTRA:          -6.302
REMARK INTER:                  -6.083
REMARK INTRA:                  -0.219
REMARK UNBOUND:                -0.024
REMARK  Name = BGC
REMARK  6 active torsions:
REMARK  status: ('A' for Active; 'I' for Inactive)
REMARK    1  A    between atoms: C_1  and  O_8
REMARK    2  A    between atoms: C_2  and  O_9
REMARK    3  A    between atoms: C_3  and  O_10
REMARK    4  A    between atoms: C_4  and  C_5
REMARK    5  A    between atoms: C_5  and  O_12
REMARK    6  A    between atoms: C_6  and  O_7
REMARK                            x       y       z     vdW  Elec       q    Type
REMARK                         _______ _______ _______ _____ _____    ______ ____
ROOT
ATOM      1  C   UNL     1      46.164   9.508  26.485  0.00  0.00    +0.201 C 
ATOM      2  C   UNL     1      46.160   8.377  27.528  0.00  0.00    +0.179 C 
ATOM      3  C   UNL     1      47.600   8.003  27.924  0.00  0.00    +0.177 C 
ATOM      4  C   UNL     1      48.515   7.813  26.687  0.00  0.00    +0.178 C 
ATOM      5  C   UNL     1      47.107   9.170  25.313  0.00  0.00    +0.279 C 
ATOM      6  O   UNL     1      48.428   8.876  25.743  0.00  0.00    -0.341 OA
ENDROOT
BRANCH   5   7
ATOM      7  O   UNL     1      46.595   8.132  24.519  0.00  0.00    -0.365 OA
ATOM      8  H   UNL     1      47.226   8.005  23.763  0.00  0.00    +0.213 HD
ENDBRANCH   5   7
BRANCH   1   9
ATOM      9  O   UNL     1      46.584  10.712  27.076  0.00  0.00    -0.384 OA
ATOM     10  H   UNL     1      45.873  11.383  26.899  0.00  0.00    +0.210 HD
ENDBRANCH   1   9
BRANCH   2  11
ATOM     11  O   UNL     1      45.493   7.247  27.029  0.00  0.00    -0.386 OA
ATOM     12  H   UNL     1      45.471   7.338  26.040  0.00  0.00    +0.210 HD
ENDBRANCH   2  11
BRANCH   3  13
ATOM     13  O   UNL     1      48.146   9.011  28.737  0.00  0.00    -0.386 OA
ATOM     14  H   UNL     1      48.780   9.526  28.174  0.00  0.00    +0.210 HD
ENDBRANCH   3  13
BRANCH   4  15
ATOM     15  C   UNL     1      48.400   6.419  26.039  0.00  0.00    +0.190 C 
BRANCH  15  16
ATOM     16  O   UNL     1      49.212   6.359  24.899  0.00  0.00    -0.392 OA
ATOM     17  H   UNL     1      48.650   6.671  24.142  0.00  0.00    +0.210 HD
ENDBRANCH  15  16
ENDBRANCH   4  15
TORSDOF 6
ENDMDL
MODEL 14
REMARK VINA RESULT:    -5.068      1.595      3.789
REMARK INTER + INTRA:          -6.129
REMARK INTER:                  -5.850
REMARK INTRA:                  -0.279
REMARK UNBOUND:                -0.024
REMARK  Name = BGC
REMARK  6 active torsions:
REMARK  status: ('A' for Active; 'I' for Inactive)
REMARK    1  A    between atoms: C_1  and  O_8
REMARK    2  A    between atoms: C_2  and  O_9
REMARK    3  A    between atoms: C_3  and  O_10
REMARK    4  A    between atoms: C_4  and  C_5
REMARK    5  A    between atoms: C_5  and  O_12
REMARK    6  A    between atoms: C_6  and  O_7
REMARK                            x       y       z     vdW  Elec       q    Type
REMARK                         _______ _______ _______ _____ _____    ______ ____
ROOT
ATOM      1  C   UNL     1      46.475   9.149  25.310  0.00  0.00    +0.201 C 
ATOM      2  C   UNL     1      47.274   9.648  26.527  0.00  0.00    +0.179 C 
ATOM      3  C   UNL     1      47.058   8.717  27.733  0.00  0.00    +0.177 C 
ATOM      4  C   UNL     1      45.559   8.395  27.962  0.00  0.00    +0.178 C 
ATOM      5  C   UNL     1      45.005   8.885  25.689  0.00  0.00    +0.279 C 
ATOM      6  O   UNL     1      44.876   7.986  26.781  0.00  0.00    -0.341 OA
ENDROOT
BRANCH   5   7
ATOM      7  O   UNL     1      44.312  10.081  25.939  0.00  0.00    -0.365 OA
ATOM      8  H   UNL     1      44.696  10.472  26.767  0.00  0.00    +0.213 HD
ENDBRANCH   5   7
BRANCH   1   9
ATOM      9  O   UNL     1      47.039   7.961  24.814  0.00  0.00    -0.384 OA
ATOM     10  H   UNL     1      48.017   8.014  24.984  0.00  0.00    +0.210 HD
ENDBRANCH   1   9
BRANCH   2  11
ATOM     11  O   UNL     1      46.895  10.959  26.861  0.00  0.00    -0.386 OA
ATOM     12  H   UNL     1      47.516  11.570  26.383  0.00  0.00    +0.210 HD
ENDBRANCH   2  11
BRANCH   3  13
ATOM     13  O   UNL     1      47.752   7.511  27.531  0.00  0.00    -0.386 OA
ATOM     14  H   UNL     1      48.342   7.380  28.318  0.00  0.00    +0.210 HD
ENDBRANCH   3  13
BRANCH   4  15
ATOM     15  C   UNL     1      44.804   9.483  28.750  0.00  0.00    +0.190 C 
BRANCH  15  16
ATOM     16  O   UNL     1      45.705  10.204  29.545  0.00  0.00    -0.392 OA
ATOM     17  H   UNL     1      45.901  11.042  29.051  0.00  0.00    +0.210 HD
ENDBRANCH  15  16
ENDBRANCH   4  15
TORSDOF 6
ENDMDL
MODEL 15
REMARK VINA RESULT:    -5.049      1.477      3.067
REMARK INTER + INTRA:          -6.106
REMARK INTER:                  -6.061
REMARK INTRA:                  -0.046
REMARK UNBOUND:                -0.024
REMARK  Name = BGC
REMARK  6 active torsions:
REMARK  status: ('A' for Active; 'I' for Inactive)
REMARK    1  A    between atoms: C_1  and  O_8
REMARK    2  A    between atoms: C_2  and  O_9
REMARK    3  A    between atoms: C_3  and  O_10
REMARK    4  A    between atoms: C_4  and  C_5
REMARK    5  A    between atoms: C_5  and  O_12
REMARK    6  A    between atoms: C_6  and  O_7
REMARK                            x       y       z     vdW  Elec       q    Type
REMARK                         _______ _______ _______ _____ _____    ______ ____
ROOT
ATOM      1  C   UNL     1      46.555   8.447  27.722  0.00  0.00    +0.201 C 
ATOM      2  C   UNL     1      47.565   8.714  28.851  0.00  0.00    +0.179 C 
ATOM      3  C   UNL     1      47.931  10.208  28.906  0.00  0.00    +0.177 C 
ATOM      4  C   UNL     1      48.277  10.777  27.506  0.00  0.00    +0.178 C 
ATOM      5  C   UNL     1      47.041   9.059  26.394  0.00  0.00    +0.279 C 
ATOM      6  O   UNL     1      47.321  10.447  26.503  0.00  0.00    -0.341 OA
ENDROOT
BRANCH   5   7
ATOM      7  O   UNL     1      48.147   8.364  25.877  0.00  0.00    -0.365 OA
ATOM      8  H   UNL     1      48.727   8.126  26.647  0.00  0.00    +0.213 HD
ENDBRANCH   5   7
BRANCH   1   9
ATOM      9  O   UNL     1      45.305   9.000  28.049  0.00  0.00    -0.384 OA
ATOM     10  H   UNL     1      45.391   9.985  27.952  0.00  0.00    +0.210 HD
ENDBRANCH   1   9
BRANCH   2  11
ATOM     11  O   UNL     1      48.725   7.944  28.667  0.00  0.00    -0.386 OA
ATOM     12  H   UNL     1      48.798   7.339  29.452  0.00  0.00    +0.210 HD
ENDBRANCH   2  11
BRANCH   3  13
ATOM     13  O   UNL     1      46.854  10.940  29.436  0.00  0.00    -0.386 OA
ATOM     14  H   UNL     1      46.152  10.285  29.687  0.00  0.00    +0.210 HD
ENDBRANCH   3  13
BRANCH   4  15
ATOM     15  C   UNL     1      49.730  10.504  27.068  0.00  0.00    +0.190 C 
BRANCH  15  16
ATOM     16  O   UNL     1      50.608  11.298  27.818  0.00  0.00    -0.392 OA
ATOM     17  H   UNL     1      50.117  11.550  28.642  0.00  0.00    +0.210 HD
ENDBRANCH  15  16
ENDBRANCH   4  15
TORSDOF 6
ENDMDL
MODEL 16
REMARK VINA RESULT:    -5.026      1.627      2.343
REMARK INTER + INTRA:          -6.079
REMARK INTER:                  -5.814
REMARK INTRA:                  -0.265
REMARK UNBOUND:                -0.024
REMARK  Name = BGC
REMARK  6 active torsions:
REMARK  status: ('A' for Active; 'I' for Inactive)
REMARK    1  A    between atoms: C_1  and  O_8
REMARK    2  A    between atoms: C_2  and  O_9
REMARK    3  A    between atoms: C_3  and  O_10
REMARK    4  A    between atoms: C_4  and  C_5
REMARK    5  A    between atoms: C_5  and  O_12
REMARK    6  A    between atoms: C_6  and  O_7
REMARK                            x       y       z     vdW  Elec       q    Type
REMARK                         _______ _______ _______ _____ _____    ______ ____
ROOT
ATOM      1  C   UNL     1      48.304   8.179  27.152  0.00  0.00    +0.201 C 
ATOM      2  C   UNL     1      47.908   9.064  25.958  0.00  0.00    +0.179 C 
ATOM      3  C   UNL     1      46.708   9.957  26.323  0.00  0.00    +0.177 C 
ATOM      4  C   UNL     1      45.573   9.158  27.012  0.00  0.00    +0.178 C 
ATOM      5  C   UNL     1      47.077   7.441  27.720  0.00  0.00    +0.279 C 
ATOM      6  O   UNL     1      46.024   8.326  28.076  0.00  0.00    -0.341 OA
ENDROOT
BRANCH   5   7
ATOM      7  O   UNL     1      46.620   6.444  26.843  0.00  0.00    -0.365 OA
ATOM      8  H   UNL     1      46.262   6.905  26.039  0.00  0.00    +0.213 HD
ENDBRANCH   5   7
BRANCH   1   9
ATOM      9  O   UNL     1      48.876   8.964  28.168  0.00  0.00    -0.384 OA
ATOM     10  H   UNL     1      48.469   9.868  28.098  0.00  0.00    +0.210 HD
ENDBRANCH   1   9
BRANCH   2  11
ATOM     11  O   UNL     1      47.591   8.273  24.841  0.00  0.00    -0.386 OA
ATOM     12  H   UNL     1      48.444   8.094  24.363  0.00  0.00    +0.210 HD
ENDBRANCH   2  11
BRANCH   3  13
ATOM     13  O   UNL     1      47.127  10.982  27.189  0.00  0.00    -0.386 OA
ATOM     14  H   UNL     1      46.629  10.866  28.039  0.00  0.00    +0.210 HD
ENDBRANCH   3  13
BRANCH   4  15
ATOM     15  C   UNL     1      44.643   8.425  26.025  0.00  0.00    +0.190 C 
BRANCH  15  16
ATOM     16  O   UNL     1      44.588   9.129  24.814  0.00  0.00    -0.392 OA
ATOM     17  H   UNL     1      45.493   9.059  24.413  0.00  0.00    +0.210 HD
ENDBRANCH  15  16
ENDBRANCH   4  15
TORSDOF 6
ENDMDL
MODEL 17
REMARK VINA RESULT:    -4.985      1.548      2.699
REMARK INTER + INTRA:          -6.029
REMARK INTER:                  -5.752
REMARK INTRA:                  -0.276
REMARK UNBOUND:                -0.024
REMARK  Name = BGC
REMARK  6 active torsions:
REMARK  status: ('A' for Active; 'I' for Inactive)
REMARK    1  A    between atoms: C_1  and  O_8
REMARK    2  A    between atoms: C_2  and  O_9
REMARK    3  A    between atoms: C_3  and  O_10
REMARK    4  A    between atoms: C_4  and  C_5
REMARK    5  A    between atoms: C_5  and  O_12
REMARK    6  A    between atoms: C_6  and  O_7
REMARK                            x       y       z     vdW  Elec       q    Type
REMARK                         _______ _______ _______ _____ _____    ______ ____
ROOT
ATOM      1  C   UNL     1      46.878  10.129  27.150  0.00  0.00    +0.201 C 
ATOM      2  C   UNL     1      47.929   9.886  26.053  0.00  0.00    +0.179 C 
ATOM      3  C   UNL     1      47.713   8.512  25.393  0.00  0.00    +0.177 C 
ATOM      4  C   UNL     1      47.518   7.386  26.440  0.00  0.00    +0.178 C 
ATOM      5  C   UNL     1      46.808   8.933  28.118  0.00  0.00    +0.279 C 
ATOM      6  O   UNL     1      46.566   7.703  27.450  0.00  0.00    -0.341 OA
ENDROOT
BRANCH   5   7
ATOM      7  O   UNL     1      47.958   8.849  28.922  0.00  0.00    -0.365 OA
ATOM      8  H   UNL     1      48.161   9.769  29.235  0.00  0.00    +0.213 HD
ENDBRANCH   5   7
BRANCH   1   9
ATOM      9  O   UNL     1      45.612  10.324  26.573  0.00  0.00    -0.384 OA
ATOM     10  H   UNL     1      45.702  11.071  25.923  0.00  0.00    +0.210 HD
ENDBRANCH   1   9
BRANCH   2  11
ATOM     11  O   UNL     1      49.226   9.961  26.587  0.00  0.00    -0.386 OA
ATOM     12  H   UNL     1      49.269  10.794  27.127  0.00  0.00    +0.210 HD
ENDBRANCH   2  11
BRANCH   3  13
ATOM     13  O   UNL     1      46.579   8.557  24.564  0.00  0.00    -0.386 OA
ATOM     14  H   UNL     1      46.706   9.318  23.940  0.00  0.00    +0.210 HD
ENDBRANCH   3  13
BRANCH   4  15
ATOM     15  C   UNL     1      48.839   6.832  27.009  0.00  0.00    +0.190 C 
BRANCH  15  16
ATOM     16  O   UNL     1      49.871   7.018  26.079  0.00  0.00    -0.392 OA
ATOM     17  H   UNL     1      49.734   6.334  25.374  0.00  0.00    +0.210 HD
ENDBRANCH  15  16
ENDBRANCH   4  15
TORSDOF 6
ENDMDL
MODEL 18
REMARK VINA RESULT:    -4.960      1.255      2.698
REMARK INTER + INTRA:          -5.999
REMARK INTER:                  -5.760
REMARK INTRA:                  -0.239
REMARK UNBOUND:                -0.024
REMARK  Name = BGC
REMARK  6 active torsions:
REMARK  status: ('A' for Active; 'I' for Inactive)
REMARK    1  A    between atoms: C_1  and  O_8
REMARK    2  A    between atoms: C_2  and  O_9
REMARK    3  A    between atoms: C_3  and  O_10
REMARK    4  A    between atoms: C_4  and  C_5
REMARK    5  A    between atoms: C_5  and  O_12
REMARK    6  A    between atoms: C_6  and  O_7
REMARK                            x       y       z     vdW  Elec       q    Type
REMARK                         _______ _______ _______ _____ _____    ______ ____
ROOT
ATOM      1  C   UNL     1      49.150  10.475  27.536  0.00  0.00    +0.201 C 
ATOM      2  C   UNL     1      49.134   8.989  27.140  0.00  0.00    +0.179 C 
ATOM      3  C   UNL     1      47.743   8.584  26.620  0.00  0.00    +0.177 C 
ATOM      4  C   UNL     1      46.605   9.074  27.552  0.00  0.00    +0.178 C 
ATOM      5  C   UNL     1      47.971  10.808  28.471  0.00  0.00    +0.279 C 
ATOM      6  O   UNL     1      46.715  10.447  27.913  0.00  0.00    -0.341 OA
ENDROOT
BRANCH   5   7
ATOM      7  O   UNL     1      48.139  10.234  29.741  0.00  0.00    -0.365 OA
ATOM      8  H   UNL     1      47.287   9.776  29.969  0.00  0.00    +0.213 HD
ENDBRANCH   5   7
BRANCH   1   9
ATOM      9  O   UNL     1      49.065  11.283  26.389  0.00  0.00    -0.384 OA
ATOM     10  H   UNL     1      48.279  11.879  26.513  0.00  0.00    +0.210 HD
ENDBRANCH   1   9
BRANCH   2  11
ATOM     11  O   UNL     1      49.488   8.183  28.235  0.00  0.00    -0.386 OA
ATOM     12  H   UNL     1      48.805   7.464  28.297  0.00  0.00    +0.210 HD
ENDBRANCH   2  11
BRANCH   3  13
ATOM     13  O   UNL     1      47.540   9.125  25.339  0.00  0.00    -0.386 OA
ATOM     14  H   UNL     1      46.579   9.362  25.273  0.00  0.00    +0.210 HD
ENDBRANCH   3  13
BRANCH   4  15
ATOM     15  C   UNL     1      46.351   8.150  28.759  0.00  0.00    +0.190 C 
BRANCH  15  16
ATOM     16  O   UNL     1      45.463   8.768  29.650  0.00  0.00    -0.392 OA
ATOM     17  H   UNL     1      44.599   8.288  29.555  0.00  0.00    +0.210 HD
ENDBRANCH  15  16
ENDBRANCH   4  15
TORSDOF 6
ENDMDL
MODEL 19
REMARK VINA RESULT:    -4.910      0.965      3.464
REMARK INTER + INTRA:          -5.939
REMARK INTER:                  -5.663
REMARK INTRA:                  -0.277
REMARK UNBOUND:                -0.024
REMARK  Name = BGC
REMARK  6 active torsions:
REMARK  status: ('A' for Active; 'I' for Inactive)
REMARK    1  A    between atoms: C_1  and  O_8
REMARK    2  A    between atoms: C_2  and  O_9
REMARK    3  A    between atoms: C_3  and  O_10
REMARK    4  A    between atoms: C_4  and  C_5
REMARK    5  A    between atoms: C_5  and  O_12
REMARK    6  A    between atoms: C_6  and  O_7
REMARK                            x       y       z     vdW  Elec       q    Type
REMARK                         _______ _______ _______ _____ _____    ______ ____
ROOT
ATOM      1  C   UNL     1      46.825   8.137  26.000  0.00  0.00    +0.201 C 
ATOM      2  C   UNL     1      46.226   9.495  26.404  0.00  0.00    +0.179 C 
ATOM      3  C   UNL     1      47.309  10.404  27.012  0.00  0.00    +0.177 C 
ATOM      4  C   UNL     1      48.158   9.667  28.079  0.00  0.00    +0.178 C 
ATOM      5  C   UNL     1      47.628   7.523  27.163  0.00  0.00    +0.279 C 
ATOM      6  O   UNL     1      48.638   8.396  27.650  0.00  0.00    -0.341 OA
ENDROOT
BRANCH   5   7
ATOM      7  O   UNL     1      46.788   7.098  28.205  0.00  0.00    -0.365 OA
ATOM      8  H   UNL     1      47.133   7.507  29.042  0.00  0.00    +0.213 HD
ENDBRANCH   5   7
BRANCH   1   9
ATOM      9  O   UNL     1      47.675   8.293  24.891  0.00  0.00    -0.384 OA
ATOM     10  H   UNL     1      47.843   9.267  24.791  0.00  0.00    +0.210 HD
ENDBRANCH   1   9
BRANCH   2  11
ATOM     11  O   UNL     1      45.179   9.318  27.323  0.00  0.00    -0.386 OA
ATOM     12  H   UNL     1      45.071   8.339  27.454  0.00  0.00    +0.210 HD
ENDBRANCH   2  11
BRANCH   3  13
ATOM     13  O   UNL     1      48.163  10.867  25.997  0.00  0.00    -0.386 OA
ATOM     14  H   UNL     1      47.588  11.256  25.288  0.00  0.00    +0.210 HD
ENDBRANCH   3  13
BRANCH   4  15
ATOM     15  C   UNL     1      47.502   9.625  29.473  0.00  0.00    +0.190 C 
BRANCH  15  16
ATOM     16  O   UNL     1      46.594  10.684  29.602  0.00  0.00    -0.392 OA
ATOM     17  H   UNL     1      45.744  10.282  29.918  0.00  0.00    +0.210 HD
ENDBRANCH  15  16
ENDBRANCH   4  15
TORSDOF 6
ENDMDL
MODEL 20
REMARK VINA RESULT:    -4.818      1.975      3.627
REMARK INTER + INTRA:          -5.828
REMARK INTER:                  -5.589
REMARK INTRA:                  -0.239
REMARK UNBOUND:                -0.024
REMARK  Name = BGC
REMARK  6 active torsions:
REMARK  status: ('A' for Active; 'I' for Inactive)
REMARK    1  A    between atoms: C_1  and  O_8
REMARK    2  A    between atoms: C_2  and  O_9
REMARK    3  A    between atoms: C_3  and  O_10
REMARK    4  A    between atoms: C_4  and  C_5
REMARK    5  A    between atoms: C_5  and  O_12
REMARK    6  A    between atoms: C_6  and  O_7
REMARK                            x       y       z     vdW  Elec       q    Type
REMARK                         _______ _______ _______ _____ _____    ______ ____
ROOT
ATOM      1  C   UNL     1      48.644   8.319  26.771  0.00  0.00    +0.201 C 
ATOM      2  C   UNL     1      47.581   7.687  27.685  0.00  0.00    +0.179 C 
ATOM      3  C   UNL     1      46.584   6.854  26.859  0.00  0.00    +0.177 C 
ATOM      4  C   UNL     1      46.071   7.622  25.614  0.00  0.00    +0.178 C 
ATOM      5  C   UNL     1      47.983   9.057  25.589  0.00  0.00    +0.279 C 
ATOM      6  O   UNL     1      47.109   8.221  24.844  0.00  0.00    -0.341 OA
ENDROOT
BRANCH   5   7
ATOM      7  O   UNL     1      47.324  10.223  26.010  0.00  0.00    -0.365 OA
ATOM      8  H   UNL     1      47.109  10.105  26.972  0.00  0.00    +0.213 HD
ENDBRANCH   5   7
BRANCH   1   9
ATOM      9  O   UNL     1      49.502   7.327  26.267  0.00  0.00    -0.384 OA
ATOM     10  H   UNL     1      49.671   7.549  25.313  0.00  0.00    +0.210 HD
ENDBRANCH   1   9
BRANCH   2  11
ATOM     11  O   UNL     1      46.893   8.680  28.403  0.00  0.00    -0.386 OA
ATOM     12  H   UNL     1      47.512   9.007  29.108  0.00  0.00    +0.210 HD
ENDBRANCH   2  11
BRANCH   3  13
ATOM     13  O   UNL     1      47.200   5.665  26.432  0.00  0.00    -0.386 OA
ATOM     14  H   UNL     1      48.165   5.742  26.652  0.00  0.00    +0.210 HD
ENDBRANCH   3  13
BRANCH   4  15
ATOM     15  C   UNL     1      44.910   8.590  25.918  0.00  0.00    +0.190 C 
BRANCH  15  16
ATOM     16  O   UNL     1      44.623   9.357  24.781  0.00  0.00    -0.392 OA
ATOM     17  H   UNL     1      44.837   8.783  24.000  0.00  0.00    +0.210 HD
ENDBRANCH  15  16
ENDBRANCH   4  15
TORSDOF 6
ENDMDL
