MODEL 16
REMARK VINA RESULT:    -4.054      1.886      3.620
REMARK INTER + INTRA:          -4.527
REMARK INTER:                  -4.527
REMARK INTRA:                   0.000
REMARK UNBOUND:                 0.000
REMARK  Name = RIP
REMARK  4 active torsions:
REMARK  status: ('A' for Active; 'I' for Inactive)
REMARK    1  A    between atoms: C_1  and  O_6
REMARK    2  A    between atoms: C_2  and  O_7
REMARK    3  A    between atoms: C_3  and  O_8
REMARK    4  A    between atoms: C_4  and  O_9
REMARK                            x       y       z     vdW  Elec       q    Type
REMARK                         _______ _______ _______ _____ _____    ______ ____
ROOT
ATOM      1  C   UNL     1      58.900  27.124   6.160  0.00  0.00    +0.279 C 
ATOM      2  C   UNL     1      60.206  27.805   5.653  0.00  0.00    +0.201 C 
ATOM      3  C   UNL     1      61.174  28.107   6.812  0.00  0.00    +0.178 C 
ATOM      4  C   UNL     1      60.377  28.644   8.008  0.00  0.00    +0.171 C 
ATOM      5  C   UNL     1      59.271  27.638   8.424  0.00  0.00    +0.197 C 
ATOM      6  O   UNL     1      59.056  26.606   7.472  0.00  0.00    -0.346 OA
ENDROOT
BRANCH   1   7
ATOM      7  O   UNL     1      57.814  28.017   6.113  0.00  0.00    -0.365 OA
ATOM      8  H   UNL     1      57.539  28.085   5.162  0.00  0.00    +0.213 HD
ENDBRANCH   1   7
BRANCH   2   9
ATOM      9  O   UNL     1      60.852  26.992   4.706  0.00  0.00    -0.384 OA
ATOM     10  H   UNL     1      61.804  26.932   4.982  0.00  0.00    +0.210 HD
ENDBRANCH   2   9
BRANCH   3  11
ATOM     11  O   UNL     1      61.869  26.937   7.173  0.00  0.00    -0.386 OA
ATOM     12  H   UNL     1      62.798  27.208   7.394  0.00  0.00    +0.210 HD
ENDBRANCH   3  11
BRANCH   4  13
ATOM     13  O   UNL     1      61.243  28.902   9.083  0.00  0.00    -0.387 OA
ATOM     14  H   UNL     1      62.053  29.329   8.699  0.00  0.00    +0.210 HD
ENDBRANCH   4  13
TORSDOF 4
ENDMDL
