MODEL 17
REMARK VINA RESULT:    -4.043      1.758      3.855
REMARK INTER + INTRA:          -4.516
REMARK INTER:                  -4.516
REMARK INTRA:                   0.000
REMARK UNBOUND:                 0.000
REMARK  Name = RIP
REMARK  4 active torsions:
REMARK  status: ('A' for Active; 'I' for Inactive)
REMARK    1  A    between atoms: C_1  and  O_6
REMARK    2  A    between atoms: C_2  and  O_7
REMARK    3  A    between atoms: C_3  and  O_8
REMARK    4  A    between atoms: C_4  and  O_9
REMARK                            x       y       z     vdW  Elec       q    Type
REMARK                         _______ _______ _______ _____ _____    ______ ____
ROOT
ATOM      1  C   UNL     1      59.294  28.790   7.554  0.00  0.00    +0.279 C 
ATOM      2  C   UNL     1      60.644  28.270   8.133  0.00  0.00    +0.201 C 
ATOM      3  C   UNL     1      61.606  27.826   7.015  0.00  0.00    +0.178 C 
ATOM      4  C   UNL     1      60.818  27.056   5.948  0.00  0.00    +0.171 C 
ATOM      5  C   UNL     1      59.652  27.920   5.399  0.00  0.00    +0.197 C 
ATOM      6  O   UNL     1      59.399  29.086   6.170  0.00  0.00    -0.346 OA
ENDROOT
BRANCH   1   7
ATOM      7  O   UNL     1      58.259  27.865   7.779  0.00  0.00    -0.365 OA
ATOM      8  H   UNL     1      57.482  28.380   8.119  0.00  0.00    +0.213 HD
ENDBRANCH   1   7
BRANCH   2   9
ATOM      9  O   UNL     1      61.262  29.263   8.913  0.00  0.00    -0.384 OA
ATOM     10  H   UNL     1      61.626  28.808   9.718  0.00  0.00    +0.210 HD
ENDBRANCH   2   9
BRANCH   3  11
ATOM     11  O   UNL     1      62.230  28.952   6.445  0.00  0.00    -0.386 OA
ATOM     12  H   UNL     1      63.153  28.987   6.809  0.00  0.00    +0.210 HD
ENDBRANCH   3  11
BRANCH   4  13
ATOM     13  O   UNL     1      61.678  26.664   4.909  0.00  0.00    -0.387 OA
ATOM     14  H   UNL     1      62.092  27.493   4.555  0.00  0.00    +0.210 HD
ENDBRANCH   4  13
TORSDOF 4
ENDMDL
