MODEL 13
REMARK VINA RESULT:    -4.131      2.327      3.872
REMARK INTER + INTRA:          -4.614
REMARK INTER:                  -4.614
REMARK INTRA:                   0.000
REMARK UNBOUND:                 0.000
REMARK  Name = RIP
REMARK  4 active torsions:
REMARK  status: ('A' for Active; 'I' for Inactive)
REMARK    1  A    between atoms: C_1  and  O_6
REMARK    2  A    between atoms: C_2  and  O_7
REMARK    3  A    between atoms: C_3  and  O_8
REMARK    4  A    between atoms: C_4  and  O_9
REMARK                            x       y       z     vdW  Elec       q    Type
REMARK                         _______ _______ _______ _____ _____    ______ ____
ROOT
ATOM      1  C   UNL     1      61.194  28.139   7.101  0.00  0.00    +0.279 C 
ATOM      2  C   UNL     1      60.404  28.905   8.204  0.00  0.00    +0.201 C 
ATOM      3  C   UNL     1      59.294  28.030   8.816  0.00  0.00    +0.178 C 
ATOM      4  C   UNL     1      58.595  27.246   7.697  0.00  0.00    +0.171 C 
ATOM      5  C   UNL     1      59.622  26.403   6.896  0.00  0.00    +0.197 C 
ATOM      6  O   UNL     1      60.973  26.740   7.177  0.00  0.00    -0.346 OA
ENDROOT
BRANCH   1   7
ATOM      7  O   UNL     1      60.865  28.618   5.820  0.00  0.00    -0.365 OA
ATOM      8  H   UNL     1      59.965  28.260   5.601  0.00  0.00    +0.213 HD
ENDBRANCH   1   7
BRANCH   2   9
ATOM      9  O   UNL     1      61.270  29.339   9.222  0.00  0.00    -0.384 OA
ATOM     10  H   UNL     1      62.096  29.665   8.775  0.00  0.00    +0.210 HD
ENDBRANCH   2   9
BRANCH   3  11
ATOM     11  O   UNL     1      59.847  27.145   9.761  0.00  0.00    -0.386 OA
ATOM     12  H   UNL     1      59.900  26.254   9.327  0.00  0.00    +0.210 HD
ENDBRANCH   3  11
BRANCH   4  13
ATOM     13  O   UNL     1      57.594  26.426   8.242  0.00  0.00    -0.387 OA
ATOM     14  H   UNL     1      57.631  25.566   7.747  0.00  0.00    +0.210 HD
ENDBRANCH   4  13
TORSDOF 4
ENDMDL
