MODEL 8
REMARK VINA RESULT:    -4.389      1.852      2.857
REMARK INTER + INTRA:          -4.902
REMARK INTER:                  -4.902
REMARK INTRA:                   0.000
REMARK UNBOUND:                 0.000
REMARK  Name = RIP
REMARK  4 active torsions:
REMARK  status: ('A' for Active; 'I' for Inactive)
REMARK    1  A    between atoms: C_1  and  O_6
REMARK    2  A    between atoms: C_2  and  O_7
REMARK    3  A    between atoms: C_3  and  O_8
REMARK    4  A    between atoms: C_4  and  O_9
REMARK                            x       y       z     vdW  Elec       q    Type
REMARK                         _______ _______ _______ _____ _____    ______ ____
ROOT
ATOM      1  C   UNL     1      61.855  24.078   4.986  0.00  0.00    +0.279 C 
ATOM      2  C   UNL     1      60.388  24.604   4.995  0.00  0.00    +0.201 C 
ATOM      3  C   UNL     1      60.311  26.055   5.504  0.00  0.00    +0.178 C 
ATOM      4  C   UNL     1      61.252  26.220   6.704  0.00  0.00    +0.171 C 
ATOM      5  C   UNL     1      62.701  25.816   6.323  0.00  0.00    +0.197 C 
ATOM      6  O   UNL     1      62.791  25.140   5.077  0.00  0.00    -0.346 OA
ENDROOT
BRANCH   1   7
ATOM      7  O   UNL     1      62.065  23.149   6.022  0.00  0.00    -0.365 OA
ATOM      8  H   UNL     1      62.442  23.654   6.788  0.00  0.00    +0.213 HD
ENDBRANCH   1   7
BRANCH   2   9
ATOM      9  O   UNL     1      59.828  24.529   3.708  0.00  0.00    -0.384 OA
ATOM     10  H   UNL     1      60.502  24.903   3.081  0.00  0.00    +0.210 HD
ENDBRANCH   2   9
BRANCH   3  11
ATOM     11  O   UNL     1      60.672  26.944   4.474  0.00  0.00    -0.386 OA
ATOM     12  H   UNL     1      59.895  27.007   3.860  0.00  0.00    +0.210 HD
ENDBRANCH   3  11
BRANCH   4  13
ATOM     13  O   UNL     1      61.210  27.545   7.166  0.00  0.00    -0.387 OA
ATOM     14  H   UNL     1      61.256  27.503   8.157  0.00  0.00    +0.210 HD
ENDBRANCH   4  13
TORSDOF 4
ENDMDL
