MODEL 1
REMARK VINA RESULT:    -4.772      0.000      0.000
REMARK INTER + INTRA:          -5.330
REMARK INTER:                  -5.330
REMARK INTRA:                   0.000
REMARK UNBOUND:                 0.000
REMARK  Name = RIP
REMARK  4 active torsions:
REMARK  status: ('A' for Active; 'I' for Inactive)
REMARK    1  A    between atoms: C_1  and  O_6
REMARK    2  A    between atoms: C_2  and  O_7
REMARK    3  A    between atoms: C_3  and  O_8
REMARK    4  A    between atoms: C_4  and  O_9
REMARK                            x       y       z     vdW  Elec       q    Type
REMARK                         _______ _______ _______ _____ _____    ______ ____
ROOT
ATOM      1  C   UNL     1      63.467  27.232   6.351  0.00  0.00    +0.279 C 
ATOM      2  C   UNL     1      62.752  26.010   5.700  0.00  0.00    +0.201 C 
ATOM      3  C   UNL     1      61.224  26.200   5.666  0.00  0.00    +0.178 C 
ATOM      4  C   UNL     1      60.763  26.810   6.996  0.00  0.00    +0.171 C 
ATOM      5  C   UNL     1      61.506  28.144   7.274  0.00  0.00    +0.197 C 
ATOM      6  O   UNL     1      62.614  28.364   6.413  0.00  0.00    -0.346 OA
ENDROOT
BRANCH   1   7
ATOM      7  O   UNL     1      63.947  26.910   7.634  0.00  0.00    -0.365 OA
ATOM      8  H   UNL     1      64.214  27.764   8.063  0.00  0.00    +0.213 HD
ENDBRANCH   1   7
BRANCH   2   9
ATOM      9  O   UNL     1      63.224  25.800   4.393  0.00  0.00    -0.384 OA
ATOM     10  H   UNL     1      63.523  24.854   4.345  0.00  0.00    +0.210 HD
ENDBRANCH   2   9
BRANCH   3  11
ATOM     11  O   UNL     1      60.868  27.040   4.594  0.00  0.00    -0.386 OA
ATOM     12  H   UNL     1      60.268  26.516   4.003  0.00  0.00    +0.210 HD
ENDBRANCH   3  11
BRANCH   4  13
ATOM     13  O   UNL     1      59.373  27.011   6.974  0.00  0.00    -0.387 OA
ATOM     14  H   UNL     1      59.180  27.740   7.620  0.00  0.00    +0.210 HD
ENDBRANCH   4  13
TORSDOF 4
ENDMDL
