MODEL 4
REMARK VINA RESULT:    -4.454      1.885      3.317
REMARK INTER + INTRA:          -4.975
REMARK INTER:                  -4.975
REMARK INTRA:                   0.000
REMARK UNBOUND:                 0.000
REMARK  Name = RIP
REMARK  4 active torsions:
REMARK  status: ('A' for Active; 'I' for Inactive)
REMARK    1  A    between atoms: C_1  and  O_6
REMARK    2  A    between atoms: C_2  and  O_7
REMARK    3  A    between atoms: C_3  and  O_8
REMARK    4  A    between atoms: C_4  and  O_9
REMARK                            x       y       z     vdW  Elec       q    Type
REMARK                         _______ _______ _______ _____ _____    ______ ____
ROOT
ATOM      1  C   UNL     1      62.683  23.824   4.738  0.00  0.00    +0.279 C 
ATOM      2  C   UNL     1      63.176  25.299   4.829  0.00  0.00    +0.201 C 
ATOM      3  C   UNL     1      62.240  26.156   5.702  0.00  0.00    +0.178 C 
ATOM      4  C   UNL     1      60.783  25.793   5.385  0.00  0.00    +0.171 C 
ATOM      5  C   UNL     1      60.540  24.275   5.591  0.00  0.00    +0.197 C 
ATOM      6  O   UNL     1      61.736  23.526   5.751  0.00  0.00    -0.346 OA
ENDROOT
BRANCH   1   7
ATOM      7  O   UNL     1      62.144  23.550   3.468  0.00  0.00    -0.365 OA
ATOM      8  H   UNL     1      62.732  23.993   2.803  0.00  0.00    +0.213 HD
ENDBRANCH   1   7
BRANCH   2   9
ATOM      9  O   UNL     1      64.480  25.353   5.352  0.00  0.00    -0.384 OA
ATOM     10  H   UNL     1      64.892  26.188   5.007  0.00  0.00    +0.210 HD
ENDBRANCH   2   9
BRANCH   3  11
ATOM     11  O   UNL     1      62.514  25.930   7.064  0.00  0.00    -0.386 OA
ATOM     12  H   UNL     1      61.943  26.555   7.582  0.00  0.00    +0.210 HD
ENDBRANCH   3  11
BRANCH   4  13
ATOM     13  O   UNL     1      59.916  26.550   6.189  0.00  0.00    -0.387 OA
ATOM     14  H   UNL     1      59.863  26.086   7.065  0.00  0.00    +0.210 HD
ENDBRANCH   4  13
TORSDOF 4
ENDMDL
