MODEL 19
REMARK VINA RESULT:    -4.035      4.024      5.637
REMARK INTER + INTRA:          -4.506
REMARK INTER:                  -4.506
REMARK INTRA:                   0.000
REMARK UNBOUND:                 0.000
REMARK  Name = RIP
REMARK  4 active torsions:
REMARK  status: ('A' for Active; 'I' for Inactive)
REMARK    1  A    between atoms: C_1  and  O_6
REMARK    2  A    between atoms: C_2  and  O_7
REMARK    3  A    between atoms: C_3  and  O_8
REMARK    4  A    between atoms: C_4  and  O_9
REMARK                            x       y       z     vdW  Elec       q    Type
REMARK                         _______ _______ _______ _____ _____    ______ ____
ROOT
ATOM      1  C   UNL     1      57.099  23.193   4.595  0.00  0.00    +0.279 C 
ATOM      2  C   UNL     1      57.878  24.050   3.553  0.00  0.00    +0.201 C 
ATOM      3  C   UNL     1      59.044  24.815   4.207  0.00  0.00    +0.178 C 
ATOM      4  C   UNL     1      58.583  25.378   5.557  0.00  0.00    +0.171 C 
ATOM      5  C   UNL     1      58.049  24.244   6.471  0.00  0.00    +0.197 C 
ATOM      6  O   UNL     1      57.846  23.015   5.788  0.00  0.00    -0.346 OA
ENDROOT
BRANCH   1   7
ATOM      7  O   UNL     1      55.846  23.763   4.883  0.00  0.00    -0.365 OA
ATOM      8  H   UNL     1      55.330  23.083   5.389  0.00  0.00    +0.213 HD
ENDBRANCH   1   7
BRANCH   2   9
ATOM      9  O   UNL     1      58.374  23.240   2.517  0.00  0.00    -0.384 OA
ATOM     10  H   UNL     1      58.996  22.589   2.937  0.00  0.00    +0.210 HD
ENDBRANCH   2   9
BRANCH   3  11
ATOM     11  O   UNL     1      60.141  23.952   4.387  0.00  0.00    -0.386 OA
ATOM     12  H   UNL     1      59.869  23.061   4.042  0.00  0.00    +0.210 HD
ENDBRANCH   3  11
BRANCH   4  13
ATOM     13  O   UNL     1      59.643  26.060   6.177  0.00  0.00    -0.387 OA
ATOM     14  H   UNL     1      60.423  25.446   6.163  0.00  0.00    +0.210 HD
ENDBRANCH   4  13
TORSDOF 4
ENDMDL
