MODEL 15
REMARK VINA RESULT:    -4.064      3.113      4.332
REMARK INTER + INTRA:          -4.539
REMARK INTER:                  -4.539
REMARK INTRA:                   0.000
REMARK UNBOUND:                 0.000
REMARK  Name = RIP
REMARK  4 active torsions:
REMARK  status: ('A' for Active; 'I' for Inactive)
REMARK    1  A    between atoms: C_1  and  O_6
REMARK    2  A    between atoms: C_2  and  O_7
REMARK    3  A    between atoms: C_3  and  O_8
REMARK    4  A    between atoms: C_4  and  O_9
REMARK                            x       y       z     vdW  Elec       q    Type
REMARK                         _______ _______ _______ _____ _____    ______ ____
ROOT
ATOM      1  C   UNL     1      59.032  28.316   6.560  0.00  0.00    +0.279 C 
ATOM      2  C   UNL     1      59.969  29.507   6.921  0.00  0.00    +0.201 C 
ATOM      3  C   UNL     1      60.661  29.291   8.280  0.00  0.00    +0.178 C 
ATOM      4  C   UNL     1      59.649  28.710   9.275  0.00  0.00    +0.171 C 
ATOM      5  C   UNL     1      59.032  27.397   8.724  0.00  0.00    +0.197 C 
ATOM      6  O   UNL     1      59.314  27.171   7.350  0.00  0.00    -0.346 OA
ENDROOT
BRANCH   1   7
ATOM      7  O   UNL     1      57.679  28.680   6.690  0.00  0.00    -0.365 OA
ATOM      8  H   UNL     1      57.290  28.094   7.390  0.00  0.00    +0.213 HD
ENDBRANCH   1   7
BRANCH   2   9
ATOM      9  O   UNL     1      60.943  29.689   5.924  0.00  0.00    -0.384 OA
ATOM     10  H   UNL     1      61.827  29.608   6.371  0.00  0.00    +0.210 HD
ENDBRANCH   2   9
BRANCH   3  11
ATOM     11  O   UNL     1      61.754  28.417   8.127  0.00  0.00    -0.386 OA
ATOM     12  H   UNL     1      61.685  27.739   8.849  0.00  0.00    +0.210 HD
ENDBRANCH   3  11
BRANCH   4  13
ATOM     13  O   UNL     1      60.270  28.486  10.513  0.00  0.00    -0.387 OA
ATOM     14  H   UNL     1      60.713  29.338  10.768  0.00  0.00    +0.210 HD
ENDBRANCH   4  13
TORSDOF 4
ENDMDL
