MODEL 9
REMARK VINA RESULT:    -4.325      1.860      3.393
REMARK INTER + INTRA:          -4.830
REMARK INTER:                  -4.830
REMARK INTRA:                   0.000
REMARK UNBOUND:                 0.000
REMARK  Name = RIP
REMARK  4 active torsions:
REMARK  status: ('A' for Active; 'I' for Inactive)
REMARK    1  A    between atoms: C_1  and  O_6
REMARK    2  A    between atoms: C_2  and  O_7
REMARK    3  A    between atoms: C_3  and  O_8
REMARK    4  A    between atoms: C_4  and  O_9
REMARK                            x       y       z     vdW  Elec       q    Type
REMARK                         _______ _______ _______ _____ _____    ______ ____
ROOT
ATOM      1  C   UNL     1      60.175  26.762   5.007  0.00  0.00    +0.279 C 
ATOM      2  C   UNL     1      59.286  27.918   5.555  0.00  0.00    +0.201 C 
ATOM      3  C   UNL     1      60.055  28.794   6.562  0.00  0.00    +0.178 C 
ATOM      4  C   UNL     1      60.891  27.893   7.480  0.00  0.00    +0.171 C 
ATOM      5  C   UNL     1      61.844  26.997   6.646  0.00  0.00    +0.197 C 
ATOM      6  O   UNL     1      61.552  26.999   5.255  0.00  0.00    -0.346 OA
ENDROOT
BRANCH   1   7
ATOM      7  O   UNL     1      59.785  25.524   5.550  0.00  0.00    -0.365 OA
ATOM      8  H   UNL     1      60.138  25.493   6.477  0.00  0.00    +0.213 HD
ENDBRANCH   1   7
BRANCH   2   9
ATOM      9  O   UNL     1      58.815  28.721   4.503  0.00  0.00    -0.384 OA
ATOM     10  H   UNL     1      57.850  28.883   4.677  0.00  0.00    +0.210 HD
ENDBRANCH   2   9
BRANCH   3  11
ATOM     11  O   UNL     1      60.886  29.698   5.874  0.00  0.00    -0.386 OA
ATOM     12  H   UNL     1      60.700  29.584   4.906  0.00  0.00    +0.210 HD
ENDBRANCH   3  11
BRANCH   4  13
ATOM     13  O   UNL     1      61.616  28.678   8.390  0.00  0.00    -0.387 OA
ATOM     14  H   UNL     1      61.731  29.570   7.968  0.00  0.00    +0.210 HD
ENDBRANCH   4  13
TORSDOF 4
ENDMDL
