MODEL 20
REMARK VINA RESULT:    -3.987      1.641      3.144
REMARK INTER + INTRA:          -4.453
REMARK INTER:                  -4.453
REMARK INTRA:                   0.000
REMARK UNBOUND:                 0.000
REMARK  Name = RIP
REMARK  4 active torsions:
REMARK  status: ('A' for Active; 'I' for Inactive)
REMARK    1  A    between atoms: C_1  and  O_6
REMARK    2  A    between atoms: C_2  and  O_7
REMARK    3  A    between atoms: C_3  and  O_8
REMARK    4  A    between atoms: C_4  and  O_9
REMARK                            x       y       z     vdW  Elec       q    Type
REMARK                         _______ _______ _______ _____ _____    ______ ____
ROOT
ATOM      1  C   UNL     1      61.444  28.428   7.105  0.00  0.00    +0.279 C 
ATOM      2  C   UNL     1      60.154  28.775   6.304  0.00  0.00    +0.201 C 
ATOM      3  C   UNL     1      59.548  27.525   5.637  0.00  0.00    +0.178 C 
ATOM      4  C   UNL     1      60.678  26.670   5.049  0.00  0.00    +0.171 C 
ATOM      5  C   UNL     1      61.712  26.299   6.144  0.00  0.00    +0.197 C 
ATOM      6  O   UNL     1      61.549  27.034   7.349  0.00  0.00    -0.346 OA
ENDROOT
BRANCH   1   7
ATOM      7  O   UNL     1      62.593  28.896   6.441  0.00  0.00    -0.365 OA
ATOM      8  H   UNL     1      62.892  29.710   6.923  0.00  0.00    +0.213 HD
ENDBRANCH   1   7
BRANCH   2   9
ATOM      9  O   UNL     1      59.195  29.367   7.143  0.00  0.00    -0.384 OA
ATOM     10  H   UNL     1      59.695  29.857   7.848  0.00  0.00    +0.210 HD
ENDBRANCH   2   9
BRANCH   3  11
ATOM     11  O   UNL     1      58.817  26.784   6.584  0.00  0.00    -0.386 OA
ATOM     12  H   UNL     1      57.948  27.247   6.706  0.00  0.00    +0.210 HD
ENDBRANCH   3  11
BRANCH   4  13
ATOM     13  O   UNL     1      60.144  25.515   4.456  0.00  0.00    -0.387 OA
ATOM     14  H   UNL     1      59.500  25.132   5.109  0.00  0.00    +0.210 HD
ENDBRANCH   4  13
TORSDOF 4
ENDMDL
