MODEL 2
REMARK VINA RESULT:    -4.540      2.298      4.311
REMARK INTER + INTRA:          -5.071
REMARK INTER:                  -5.071
REMARK INTRA:                   0.000
REMARK UNBOUND:                 0.000
REMARK  Name = RIP
REMARK  4 active torsions:
REMARK  status: ('A' for Active; 'I' for Inactive)
REMARK    1  A    between atoms: C_1  and  O_6
REMARK    2  A    between atoms: C_2  and  O_7
REMARK    3  A    between atoms: C_3  and  O_8
REMARK    4  A    between atoms: C_4  and  O_9
REMARK                            x       y       z     vdW  Elec       q    Type
REMARK                         _______ _______ _______ _____ _____    ______ ____
ROOT
ATOM      1  C   UNL     1      58.785  24.482   5.062  0.00  0.00    +0.279 C 
ATOM      2  C   UNL     1      58.880  25.880   5.742  0.00  0.00    +0.201 C 
ATOM      3  C   UNL     1      60.318  26.431   5.706  0.00  0.00    +0.178 C 
ATOM      4  C   UNL     1      61.301  25.295   6.018  0.00  0.00    +0.171 C 
ATOM      5  C   UNL     1      61.107  24.115   5.029  0.00  0.00    +0.197 C 
ATOM      6  O   UNL     1      59.920  24.215   4.254  0.00  0.00    -0.346 OA
ENDROOT
BRANCH   1   7
ATOM      7  O   UNL     1      58.616  23.465   6.020  0.00  0.00    -0.365 OA
ATOM      8  H   UNL     1      58.461  22.622   5.520  0.00  0.00    +0.213 HD
ENDBRANCH   1   7
BRANCH   2   9
ATOM      9  O   UNL     1      58.015  26.794   5.117  0.00  0.00    -0.384 OA
ATOM     10  H   UNL     1      58.104  27.654   5.607  0.00  0.00    +0.210 HD
ENDBRANCH   2   9
BRANCH   3  11
ATOM     11  O   UNL     1      60.590  26.977   4.437  0.00  0.00    -0.386 OA
ATOM     12  H   UNL     1      60.250  26.330   3.765  0.00  0.00    +0.210 HD
ENDBRANCH   3  11
BRANCH   4  13
ATOM     13  O   UNL     1      62.619  25.775   5.967  0.00  0.00    -0.387 OA
ATOM     14  H   UNL     1      63.214  24.987   6.070  0.00  0.00    +0.210 HD
ENDBRANCH   4  13
TORSDOF 4
ENDMDL
