MODEL 7
REMARK VINA RESULT:    -4.395      2.560      4.320
REMARK INTER + INTRA:          -4.908
REMARK INTER:                  -4.908
REMARK INTRA:                   0.000
REMARK UNBOUND:                 0.000
REMARK  Name = RIP
REMARK  4 active torsions:
REMARK  status: ('A' for Active; 'I' for Inactive)
REMARK    1  A    between atoms: C_1  and  O_6
REMARK    2  A    between atoms: C_2  and  O_7
REMARK    3  A    between atoms: C_3  and  O_8
REMARK    4  A    between atoms: C_4  and  O_9
REMARK                            x       y       z     vdW  Elec       q    Type
REMARK                         _______ _______ _______ _____ _____    ______ ____
ROOT
ATOM      1  C   UNL     1      61.629  30.526   6.720  0.00  0.00    +0.279 C 
ATOM      2  C   UNL     1      60.763  30.809   7.983  0.00  0.00    +0.201 C 
ATOM      3  C   UNL     1      60.224  29.506   8.603  0.00  0.00    +0.178 C 
ATOM      4  C   UNL     1      59.761  28.568   7.481  0.00  0.00    +0.171 C 
ATOM      5  C   UNL     1      60.916  28.299   6.481  0.00  0.00    +0.197 C 
ATOM      6  O   UNL     1      62.028  29.166   6.653  0.00  0.00    -0.346 OA
ENDROOT
BRANCH   1   7
ATOM      7  O   UNL     1      60.946  30.894   5.546  0.00  0.00    -0.365 OA
ATOM      8  H   UNL     1      61.536  30.659   4.784  0.00  0.00    +0.213 HD
ENDBRANCH   1   7
BRANCH   2   9
ATOM      9  O   UNL     1      61.509  31.510   8.946  0.00  0.00    -0.384 OA
ATOM     10  H   UNL     1      61.895  32.302   8.488  0.00  0.00    +0.210 HD
ENDBRANCH   2   9
BRANCH   3  11
ATOM     11  O   UNL     1      61.229  28.889   9.372  0.00  0.00    -0.386 OA
ATOM     12  H   UNL     1      61.303  27.952   9.054  0.00  0.00    +0.210 HD
ENDBRANCH   3  11
BRANCH   4  13
ATOM     13  O   UNL     1      59.287  27.365   8.029  0.00  0.00    -0.387 OA
ATOM     14  H   UNL     1      58.875  26.856   7.283  0.00  0.00    +0.210 HD
ENDBRANCH   4  13
TORSDOF 4
ENDMDL
