MODEL 3
REMARK VINA RESULT:    -4.538      1.166      3.124
REMARK INTER + INTRA:          -5.069
REMARK INTER:                  -5.069
REMARK INTRA:                   0.000
REMARK UNBOUND:                 0.000
REMARK  Name = RIP
REMARK  4 active torsions:
REMARK  status: ('A' for Active; 'I' for Inactive)
REMARK    1  A    between atoms: C_1  and  O_6
REMARK    2  A    between atoms: C_2  and  O_7
REMARK    3  A    between atoms: C_3  and  O_8
REMARK    4  A    between atoms: C_4  and  O_9
REMARK                            x       y       z     vdW  Elec       q    Type
REMARK                         _______ _______ _______ _____ _____    ______ ____
ROOT
ATOM      1  C   UNL     1      60.532  27.790   5.998  0.00  0.00    +0.279 C 
ATOM      2  C   UNL     1      61.934  27.522   6.623  0.00  0.00    +0.201 C 
ATOM      3  C   UNL     1      62.555  26.220   6.083  0.00  0.00    +0.178 C 
ATOM      4  C   UNL     1      61.469  25.139   6.003  0.00  0.00    +0.171 C 
ATOM      5  C   UNL     1      60.281  25.621   5.129  0.00  0.00    +0.197 C 
ATOM      6  O   UNL     1      60.322  27.010   4.832  0.00  0.00    -0.346 OA
ENDROOT
BRANCH   1   7
ATOM      7  O   UNL     1      59.509  27.557   6.935  0.00  0.00    -0.365 OA
ATOM      8  H   UNL     1      58.791  27.064   6.459  0.00  0.00    +0.213 HD
ENDBRANCH   1   7
BRANCH   2   9
ATOM      9  O   UNL     1      62.803  28.595   6.366  0.00  0.00    -0.384 OA
ATOM     10  H   UNL     1      62.969  28.601   5.386  0.00  0.00    +0.210 HD
ENDBRANCH   2   9
BRANCH   3  11
ATOM     11  O   UNL     1      63.113  26.447   4.811  0.00  0.00    -0.386 OA
ATOM     12  H   UNL     1      63.755  25.709   4.641  0.00  0.00    +0.210 HD
ENDBRANCH   3  11
BRANCH   4  13
ATOM     13  O   UNL     1      62.014  23.951   5.491  0.00  0.00    -0.387 OA
ATOM     14  H   UNL     1      62.918  24.177   5.148  0.00  0.00    +0.210 HD
ENDBRANCH   4  13
TORSDOF 4
ENDMDL
