MODEL 6
REMARK VINA RESULT:    -4.400      1.814      2.127
REMARK INTER + INTRA:          -4.915
REMARK INTER:                  -4.915
REMARK INTRA:                   0.000
REMARK UNBOUND:                 0.000
REMARK  Name = RIP
REMARK  4 active torsions:
REMARK  status: ('A' for Active; 'I' for Inactive)
REMARK    1  A    between atoms: C_1  and  O_6
REMARK    2  A    between atoms: C_2  and  O_7
REMARK    3  A    between atoms: C_3  and  O_8
REMARK    4  A    between atoms: C_4  and  O_9
REMARK                            x       y       z     vdW  Elec       q    Type
REMARK                         _______ _______ _______ _____ _____    ______ ____
ROOT
ATOM      1  C   UNL     1      62.194  25.681   5.696  0.00  0.00    +0.279 C 
ATOM      2  C   UNL     1      61.338  24.394   5.505  0.00  0.00    +0.201 C 
ATOM      3  C   UNL     1      59.864  24.732   5.214  0.00  0.00    +0.178 C 
ATOM      4  C   UNL     1      59.423  25.886   6.122  0.00  0.00    +0.171 C 
ATOM      5  C   UNL     1      60.348  27.117   5.932  0.00  0.00    +0.197 C 
ATOM      6  O   UNL     1      61.529  26.830   5.196  0.00  0.00    -0.346 OA
ENDROOT
BRANCH   1   7
ATOM      7  O   UNL     1      62.537  25.864   7.048  0.00  0.00    -0.365 OA
ATOM      8  H   UNL     1      61.716  25.696   7.578  0.00  0.00    +0.213 HD
ENDBRANCH   1   7
BRANCH   2   9
ATOM      9  O   UNL     1      61.853  23.609   4.459  0.00  0.00    -0.384 OA
ATOM     10  H   UNL     1      61.507  22.687   4.596  0.00  0.00    +0.210 HD
ENDBRANCH   2   9
BRANCH   3  11
ATOM     11  O   UNL     1      59.713  25.089   3.861  0.00  0.00    -0.386 OA
ATOM     12  H   UNL     1      58.822  24.762   3.572  0.00  0.00    +0.210 HD
ENDBRANCH   3  11
BRANCH   4  13
ATOM     13  O   UNL     1      58.087  26.222   5.853  0.00  0.00    -0.387 OA
ATOM     14  H   UNL     1      57.726  25.508   5.265  0.00  0.00    +0.210 HD
ENDBRANCH   4  13
TORSDOF 4
ENDMDL
