MODEL 11
REMARK VINA RESULT:    -4.255      3.206      4.815
REMARK INTER + INTRA:          -4.752
REMARK INTER:                  -4.752
REMARK INTRA:                   0.000
REMARK UNBOUND:                 0.000
REMARK  Name = RIP
REMARK  4 active torsions:
REMARK  status: ('A' for Active; 'I' for Inactive)
REMARK    1  A    between atoms: C_1  and  O_6
REMARK    2  A    between atoms: C_2  and  O_7
REMARK    3  A    between atoms: C_3  and  O_8
REMARK    4  A    between atoms: C_4  and  O_9
REMARK                            x       y       z     vdW  Elec       q    Type
REMARK                         _______ _______ _______ _____ _____    ______ ____
ROOT
ATOM      1  C   UNL     1      59.197  26.876   9.201  0.00  0.00    +0.279 C 
ATOM      2  C   UNL     1      59.771  27.752   8.047  0.00  0.00    +0.201 C 
ATOM      3  C   UNL     1      60.165  29.156   8.545  0.00  0.00    +0.178 C 
ATOM      4  C   UNL     1      59.090  29.669   9.511  0.00  0.00    +0.171 C 
ATOM      5  C   UNL     1      58.888  28.674  10.684  0.00  0.00    +0.197 C 
ATOM      6  O   UNL     1      59.514  27.416  10.474  0.00  0.00    -0.346 OA
ENDROOT
BRANCH   1   7
ATOM      7  O   UNL     1      57.805  26.717   9.069  0.00  0.00    -0.365 OA
ATOM      8  H   UNL     1      57.534  26.013   9.714  0.00  0.00    +0.213 HD
ENDBRANCH   1   7
BRANCH   2   9
ATOM      9  O   UNL     1      60.890  27.132   7.465  0.00  0.00    -0.384 OA
ATOM     10  H   UNL     1      60.549  26.564   6.725  0.00  0.00    +0.210 HD
ENDBRANCH   2   9
BRANCH   3  11
ATOM     11  O   UNL     1      61.416  29.102   9.189  0.00  0.00    -0.386 OA
ATOM     12  H   UNL     1      61.263  28.701  10.084  0.00  0.00    +0.210 HD
ENDBRANCH   3  11
BRANCH   4  13
ATOM     13  O   UNL     1      59.446  30.939   9.991  0.00  0.00    -0.387 OA
ATOM     14  H   UNL     1      58.807  31.158  10.719  0.00  0.00    +0.210 HD
ENDBRANCH   4  13
TORSDOF 4
ENDMDL
