MODEL 12
REMARK VINA RESULT:    -4.229      2.368      3.435
REMARK INTER + INTRA:          -4.724
REMARK INTER:                  -4.724
REMARK INTRA:                   0.000
REMARK UNBOUND:                 0.000
REMARK  Name = RIP
REMARK  4 active torsions:
REMARK  status: ('A' for Active; 'I' for Inactive)
REMARK    1  A    between atoms: C_1  and  O_6
REMARK    2  A    between atoms: C_2  and  O_7
REMARK    3  A    between atoms: C_3  and  O_8
REMARK    4  A    between atoms: C_4  and  O_9
REMARK                            x       y       z     vdW  Elec       q    Type
REMARK                         _______ _______ _______ _____ _____    ______ ____
ROOT
ATOM      1  C   UNL     1      59.846  27.144   5.597  0.00  0.00    +0.279 C 
ATOM      2  C   UNL     1      60.916  26.016   5.691  0.00  0.00    +0.201 C 
ATOM      3  C   UNL     1      60.309  24.632   5.392  0.00  0.00    +0.178 C 
ATOM      4  C   UNL     1      58.938  24.526   6.074  0.00  0.00    +0.171 C 
ATOM      5  C   UNL     1      58.007  25.678   5.615  0.00  0.00    +0.197 C 
ATOM      6  O   UNL     1      58.685  26.707   4.907  0.00  0.00    -0.346 OA
ENDROOT
BRANCH   1   7
ATOM      7  O   UNL     1      59.504  27.623   6.875  0.00  0.00    -0.365 OA
ATOM      8  H   UNL     1      59.825  26.950   7.530  0.00  0.00    +0.213 HD
ENDBRANCH   1   7
BRANCH   2   9
ATOM      9  O   UNL     1      61.974  26.263   4.800  0.00  0.00    -0.384 OA
ATOM     10  H   UNL     1      61.570  26.635   3.972  0.00  0.00    +0.210 HD
ENDBRANCH   2   9
BRANCH   3  11
ATOM     11  O   UNL     1      60.178  24.457   4.002  0.00  0.00    -0.386 OA
ATOM     12  H   UNL     1      60.585  23.579   3.781  0.00  0.00    +0.210 HD
ENDBRANCH   3  11
BRANCH   4  13
ATOM     13  O   UNL     1      58.360  23.277   5.792  0.00  0.00    -0.387 OA
ATOM     14  H   UNL     1      58.386  23.168   4.806  0.00  0.00    +0.210 HD
ENDBRANCH   4  13
TORSDOF 4
ENDMDL
