MODEL 10
REMARK VINA RESULT:    -4.314     10.021     11.334
REMARK INTER + INTRA:          -4.819
REMARK INTER:                  -4.819
REMARK INTRA:                   0.000
REMARK UNBOUND:                 0.000
REMARK  Name = RIP
REMARK  4 active torsions:
REMARK  status: ('A' for Active; 'I' for Inactive)
REMARK    1  A    between atoms: C_1  and  O_6
REMARK    2  A    between atoms: C_2  and  O_7
REMARK    3  A    between atoms: C_3  and  O_8
REMARK    4  A    between atoms: C_4  and  O_9
REMARK                            x       y       z     vdW  Elec       q    Type
REMARK                         _______ _______ _______ _____ _____    ______ ____
ROOT
ATOM      1  C   UNL     1      65.622  38.181   8.525  0.00  0.00    +0.279 C 
ATOM      2  C   UNL     1      64.544  37.059   8.607  0.00  0.00    +0.201 C 
ATOM      3  C   UNL     1      65.046  35.848   9.415  0.00  0.00    +0.178 C 
ATOM      4  C   UNL     1      66.505  35.561   9.038  0.00  0.00    +0.171 C 
ATOM      5  C   UNL     1      67.388  36.817   9.268  0.00  0.00    +0.197 C 
ATOM      6  O   UNL     1      66.638  38.001   9.500  0.00  0.00    -0.346 OA
ENDROOT
BRANCH   1   7
ATOM      7  O   UNL     1      66.186  38.247   7.238  0.00  0.00    -0.365 OA
ATOM      8  H   UNL     1      66.161  37.327   6.865  0.00  0.00    +0.213 HD
ENDBRANCH   1   7
BRANCH   2   9
ATOM      9  O   UNL     1      63.363  37.551   9.188  0.00  0.00    -0.384 OA
ATOM     10  H   UNL     1      63.434  37.385  10.165  0.00  0.00    +0.210 HD
ENDBRANCH   2   9
BRANCH   3  11
ATOM     11  O   UNL     1      64.941  36.115  10.793  0.00  0.00    -0.386 OA
ATOM     12  H   UNL     1      65.864  36.241  11.135  0.00  0.00    +0.210 HD
ENDBRANCH   3  11
BRANCH   4  13
ATOM     13  O   UNL     1      66.986  34.473   9.784  0.00  0.00    -0.387 OA
ATOM     14  H   UNL     1      67.035  34.774  10.728  0.00  0.00    +0.210 HD
ENDBRANCH   4  13
TORSDOF 4
ENDMDL
