MODEL 5
REMARK VINA RESULT:    -4.417      1.874      3.285
REMARK INTER + INTRA:          -4.933
REMARK INTER:                  -4.933
REMARK INTRA:                   0.000
REMARK UNBOUND:                 0.000
REMARK  Name = RIP
REMARK  4 active torsions:
REMARK  status: ('A' for Active; 'I' for Inactive)
REMARK    1  A    between atoms: C_1  and  O_6
REMARK    2  A    between atoms: C_2  and  O_7
REMARK    3  A    between atoms: C_3  and  O_8
REMARK    4  A    between atoms: C_4  and  O_9
REMARK                            x       y       z     vdW  Elec       q    Type
REMARK                         _______ _______ _______ _____ _____    ______ ____
ROOT
ATOM      1  C   UNL     1      61.091  24.510   5.582  0.00  0.00    +0.279 C 
ATOM      2  C   UNL     1      61.896  25.822   5.825  0.00  0.00    +0.201 C 
ATOM      3  C   UNL     1      60.975  27.057   5.836  0.00  0.00    +0.178 C 
ATOM      4  C   UNL     1      59.939  26.923   4.712  0.00  0.00    +0.171 C 
ATOM      5  C   UNL     1      59.139  25.602   4.860  0.00  0.00    +0.197 C 
ATOM      6  O   UNL     1      59.703  24.701   5.802  0.00  0.00    -0.346 OA
ENDROOT
BRANCH   1   7
ATOM      7  O   UNL     1      61.318  24.012   4.286  0.00  0.00    -0.365 OA
ATOM      8  H   UNL     1      60.545  23.433   4.061  0.00  0.00    +0.213 HD
ENDBRANCH   1   7
BRANCH   2   9
ATOM      9  O   UNL     1      62.598  25.754   7.041  0.00  0.00    -0.384 OA
ATOM     10  H   UNL     1      63.399  26.333   6.941  0.00  0.00    +0.210 HD
ENDBRANCH   2   9
BRANCH   3  11
ATOM     11  O   UNL     1      60.332  27.165   7.083  0.00  0.00    -0.386 OA
ATOM     12  H   UNL     1      59.812  28.010   7.069  0.00  0.00    +0.210 HD
ENDBRANCH   3  11
BRANCH   4  13
ATOM     13  O   UNL     1      59.077  28.031   4.722  0.00  0.00    -0.387 OA
ATOM     14  H   UNL     1      58.231  27.729   5.145  0.00  0.00    +0.210 HD
ENDBRANCH   4  13
TORSDOF 4
ENDMDL
