MODEL 14
REMARK VINA RESULT:    -5.209      1.615      3.786
REMARK INTER + INTRA:          -6.299
REMARK INTER:                  -6.062
REMARK INTRA:                  -0.237
REMARK UNBOUND:                -0.024
REMARK  Name = BGC
REMARK  6 active torsions:
REMARK  status: ('A' for Active; 'I' for Inactive)
REMARK    1  A    between atoms: C_1  and  O_8
REMARK    2  A    between atoms: C_2  and  O_9
REMARK    3  A    between atoms: C_3  and  O_10
REMARK    4  A    between atoms: C_4  and  C_5
REMARK    5  A    between atoms: C_5  and  O_12
REMARK    6  A    between atoms: C_6  and  O_7
REMARK                            x       y       z     vdW  Elec       q    Type
REMARK                         _______ _______ _______ _____ _____    ______ ____
ROOT
ATOM      1  C   UNL     1      48.676   7.039  26.226  0.00  0.00    +0.201 C 
ATOM      2  C   UNL     1      47.141   6.938  26.277  0.00  0.00    +0.179 C 
ATOM      3  C   UNL     1      46.497   8.225  25.732  0.00  0.00    +0.177 C 
ATOM      4  C   UNL     1      47.137   9.500  26.337  0.00  0.00    +0.178 C 
ATOM      5  C   UNL     1      49.162   8.349  26.875  0.00  0.00    +0.279 C 
ATOM      6  O   UNL     1      48.561   9.499  26.298  0.00  0.00    -0.341 OA
ENDROOT
BRANCH   5   7
ATOM      7  O   UNL     1      48.983   8.335  28.268  0.00  0.00    -0.365 OA
ATOM      8  H   UNL     1      49.888   8.317  28.677  0.00  0.00    +0.213 HD
ENDBRANCH   5   7
BRANCH   1   9
ATOM      9  O   UNL     1      49.120   6.997  24.893  0.00  0.00    -0.384 OA
ATOM     10  H   UNL     1      50.107   7.113  24.914  0.00  0.00    +0.210 HD
ENDBRANCH   1   9
BRANCH   2  11
ATOM     11  O   UNL     1      46.706   6.706  27.592  0.00  0.00    -0.386 OA
ATOM     12  H   UNL     1      46.122   7.470  27.842  0.00  0.00    +0.210 HD
ENDBRANCH   2  11
BRANCH   3  13
ATOM     13  O   UNL     1      46.639   8.270  24.334  0.00  0.00    -0.386 OA
ATOM     14  H   UNL     1      45.994   7.618  23.955  0.00  0.00    +0.210 HD
ENDBRANCH   3  13
BRANCH   4  15
ATOM     15  C   UNL     1      46.572   9.881  27.720  0.00  0.00    +0.190 C 
BRANCH  15  16
ATOM     16  O   UNL     1      47.305  10.950  28.253  0.00  0.00    -0.392 OA
ATOM     17  H   UNL     1      48.023  10.544  28.806  0.00  0.00    +0.210 HD
ENDBRANCH  15  16
ENDBRANCH   4  15
TORSDOF 6
ENDMDL
