MODEL 4
REMARK VINA RESULT:    -5.587      1.197      2.202
REMARK INTER + INTRA:          -6.755
REMARK INTER:                  -6.515
REMARK INTRA:                  -0.239
REMARK UNBOUND:                -0.024
REMARK  Name = BGC
REMARK  6 active torsions:
REMARK  status: ('A' for Active; 'I' for Inactive)
REMARK    1  A    between atoms: C_1  and  O_8
REMARK    2  A    between atoms: C_2  and  O_9
REMARK    3  A    between atoms: C_3  and  O_10
REMARK    4  A    between atoms: C_4  and  C_5
REMARK    5  A    between atoms: C_5  and  O_12
REMARK    6  A    between atoms: C_6  and  O_7
REMARK                            x       y       z     vdW  Elec       q    Type
REMARK                         _______ _______ _______ _____ _____    ______ ____
ROOT
ATOM      1  C   UNL     1      47.670  10.629  28.382  0.00  0.00    +0.201 C 
ATOM      2  C   UNL     1      47.932   9.152  28.725  0.00  0.00    +0.179 C 
ATOM      3  C   UNL     1      48.843   8.506  27.666  0.00  0.00    +0.177 C 
ATOM      4  C   UNL     1      48.374   8.818  26.222  0.00  0.00    +0.178 C 
ATOM      5  C   UNL     1      47.199  10.778  26.922  0.00  0.00    +0.279 C 
ATOM      6  O   UNL     1      48.105  10.198  25.995  0.00  0.00    -0.341 OA
ENDROOT
BRANCH   5   7
ATOM      7  O   UNL     1      45.902  10.271  26.741  0.00  0.00    -0.365 OA
ATOM      8  H   UNL     1      45.661  10.420  25.789  0.00  0.00    +0.213 HD
ENDBRANCH   5   7
BRANCH   1   9
ATOM      9  O   UNL     1      48.841  11.384  28.564  0.00  0.00    -0.384 OA
ATOM     10  H   UNL     1      48.951  11.515  29.543  0.00  0.00    +0.210 HD
ENDBRANCH   1   9
BRANCH   2  11
ATOM     11  O   UNL     1      46.722   8.443  28.811  0.00  0.00    -0.386 OA
ATOM     12  H   UNL     1      46.801   7.831  29.589  0.00  0.00    +0.210 HD
ENDBRANCH   2  11
BRANCH   3  13
ATOM     13  O   UNL     1      50.159   8.975  27.823  0.00  0.00    -0.386 OA
ATOM     14  H   UNL     1      50.160   9.580  28.610  0.00  0.00    +0.210 HD
ENDBRANCH   3  13
BRANCH   4  15
ATOM     15  C   UNL     1      47.247   7.893  25.723  0.00  0.00    +0.190 C 
BRANCH  15  16
ATOM     16  O   UNL     1      46.751   8.368  24.501  0.00  0.00    -0.392 OA
ATOM     17  H   UNL     1      46.763   9.358  24.565  0.00  0.00    +0.210 HD
ENDBRANCH  15  16
ENDBRANCH   4  15
TORSDOF 6
ENDMDL
