MODEL 12
REMARK VINA RESULT:    -5.229      1.427      3.467
REMARK INTER + INTRA:          -6.323
REMARK INTER:                  -6.090
REMARK INTRA:                  -0.233
REMARK UNBOUND:                -0.024
REMARK  Name = BGC
REMARK  6 active torsions:
REMARK  status: ('A' for Active; 'I' for Inactive)
REMARK    1  A    between atoms: C_1  and  O_8
REMARK    2  A    between atoms: C_2  and  O_9
REMARK    3  A    between atoms: C_3  and  O_10
REMARK    4  A    between atoms: C_4  and  C_5
REMARK    5  A    between atoms: C_5  and  O_12
REMARK    6  A    between atoms: C_6  and  O_7
REMARK                            x       y       z     vdW  Elec       q    Type
REMARK                         _______ _______ _______ _____ _____    ______ ____
ROOT
ATOM      1  C   UNL     1      45.830   7.846  26.762  0.00  0.00    +0.201 C 
ATOM      2  C   UNL     1      46.930   7.673  25.700  0.00  0.00    +0.179 C 
ATOM      3  C   UNL     1      48.301   8.072  26.273  0.00  0.00    +0.177 C 
ATOM      4  C   UNL     1      48.251   9.432  27.015  0.00  0.00    +0.178 C 
ATOM      5  C   UNL     1      45.899   9.247  27.400  0.00  0.00    +0.279 C 
ATOM      6  O   UNL     1      47.178   9.536  27.946  0.00  0.00    -0.341 OA
ENDROOT
BRANCH   5   7
ATOM      7  O   UNL     1      45.502  10.248  26.498  0.00  0.00    -0.365 OA
ATOM      8  H   UNL     1      46.209  10.311  25.804  0.00  0.00    +0.213 HD
ENDBRANCH   5   7
BRANCH   1   9
ATOM      9  O   UNL     1      45.973   6.878  27.771  0.00  0.00    -0.384 OA
ATOM     10  H   UNL     1      46.216   7.363  28.604  0.00  0.00    +0.210 HD
ENDBRANCH   1   9
BRANCH   2  11
ATOM     11  O   UNL     1      46.644   8.446  24.563  0.00  0.00    -0.386 OA
ATOM     12  H   UNL     1      47.508   8.613  24.102  0.00  0.00    +0.210 HD
ENDBRANCH   2  11
BRANCH   3  13
ATOM     13  O   UNL     1      48.746   7.086  27.171  0.00  0.00    -0.386 OA
ATOM     14  H   UNL     1      49.737   7.135  27.189  0.00  0.00    +0.210 HD
ENDBRANCH   3  13
BRANCH   4  15
ATOM     15  C   UNL     1      48.359  10.653  26.080  0.00  0.00    +0.190 C 
BRANCH  15  16
ATOM     16  O   UNL     1      48.028  11.819  26.783  0.00  0.00    -0.392 OA
ATOM     17  H   UNL     1      47.053  11.953  26.652  0.00  0.00    +0.210 HD
ENDBRANCH  15  16
ENDBRANCH   4  15
TORSDOF 6
ENDMDL
