MODEL 15
REMARK VINA RESULT:    -5.194      1.476      2.630
REMARK INTER + INTRA:          -6.281
REMARK INTER:                  -6.081
REMARK INTRA:                  -0.200
REMARK UNBOUND:                -0.024
REMARK  Name = BGC
REMARK  6 active torsions:
REMARK  status: ('A' for Active; 'I' for Inactive)
REMARK    1  A    between atoms: C_1  and  O_8
REMARK    2  A    between atoms: C_2  and  O_9
REMARK    3  A    between atoms: C_3  and  O_10
REMARK    4  A    between atoms: C_4  and  C_5
REMARK    5  A    between atoms: C_5  and  O_12
REMARK    6  A    between atoms: C_6  and  O_7
REMARK                            x       y       z     vdW  Elec       q    Type
REMARK                         _______ _______ _______ _____ _____    ______ ____
ROOT
ATOM      1  C   UNL     1      48.595  11.082  27.519  0.00  0.00    +0.201 C 
ATOM      2  C   UNL     1      49.362   9.847  27.016  0.00  0.00    +0.179 C 
ATOM      3  C   UNL     1      48.383   8.730  26.614  0.00  0.00    +0.177 C 
ATOM      4  C   UNL     1      47.296   8.490  27.693  0.00  0.00    +0.178 C 
ATOM      5  C   UNL     1      47.563  10.688  28.593  0.00  0.00    +0.279 C 
ATOM      6  O   UNL     1      46.664   9.684  28.144  0.00  0.00    -0.341 OA
ENDROOT
BRANCH   5   7
ATOM      7  O   UNL     1      48.184  10.304  29.793  0.00  0.00    -0.365 OA
ATOM      8  H   UNL     1      48.717   9.489  29.597  0.00  0.00    +0.213 HD
ENDBRANCH   5   7
BRANCH   1   9
ATOM      9  O   UNL     1      47.927  11.706  26.451  0.00  0.00    -0.384 OA
ATOM     10  H   UNL     1      48.187  12.665  26.469  0.00  0.00    +0.210 HD
ENDBRANCH   1   9
BRANCH   2  11
ATOM     11  O   UNL     1      50.243   9.377  28.005  0.00  0.00    -0.386 OA
ATOM     12  H   UNL     1      51.161   9.451  27.632  0.00  0.00    +0.210 HD
ENDBRANCH   2  11
BRANCH   3  13
ATOM     13  O   UNL     1      47.750   9.067  25.405  0.00  0.00    -0.386 OA
ATOM     14  H   UNL     1      46.897   9.518  25.639  0.00  0.00    +0.210 HD
ENDBRANCH   3  13
BRANCH   4  15
ATOM     15  C   UNL     1      47.759   7.579  28.847  0.00  0.00    +0.190 C 
BRANCH  15  16
ATOM     16  O   UNL     1      48.980   6.977  28.516  0.00  0.00    -0.392 OA
ATOM     17  H   UNL     1      48.985   6.095  28.970  0.00  0.00    +0.210 HD
ENDBRANCH  15  16
ENDBRANCH   4  15
TORSDOF 6
ENDMDL
