MODEL 5
REMARK VINA RESULT:    -5.531      1.134      2.893
REMARK INTER + INTRA:          -6.687
REMARK INTER:                  -6.479
REMARK INTRA:                  -0.208
REMARK UNBOUND:                -0.024
REMARK  Name = BGC
REMARK  6 active torsions:
REMARK  status: ('A' for Active; 'I' for Inactive)
REMARK    1  A    between atoms: C_1  and  O_8
REMARK    2  A    between atoms: C_2  and  O_9
REMARK    3  A    between atoms: C_3  and  O_10
REMARK    4  A    between atoms: C_4  and  C_5
REMARK    5  A    between atoms: C_5  and  O_12
REMARK    6  A    between atoms: C_6  and  O_7
REMARK                            x       y       z     vdW  Elec       q    Type
REMARK                         _______ _______ _______ _____ _____    ______ ____
ROOT
ATOM      1  C   UNL     1      47.773  10.585  28.512  0.00  0.00    +0.201 C 
ATOM      2  C   UNL     1      46.504   9.929  27.941  0.00  0.00    +0.179 C 
ATOM      3  C   UNL     1      46.800   8.490  27.483  0.00  0.00    +0.177 C 
ATOM      4  C   UNL     1      48.083   8.404  26.618  0.00  0.00    +0.178 C 
ATOM      5  C   UNL     1      48.957  10.430  27.538  0.00  0.00    +0.279 C 
ATOM      6  O   UNL     1      49.202   9.075  27.189  0.00  0.00    -0.341 OA
ENDROOT
BRANCH   5   7
ATOM      7  O   UNL     1      48.791  11.222  26.390  0.00  0.00    -0.365 OA
ATOM      8  H   UNL     1      49.078  12.143  26.627  0.00  0.00    +0.213 HD
ENDBRANCH   5   7
BRANCH   1   9
ATOM      9  O   UNL     1      48.112   9.995  29.741  0.00  0.00    -0.384 OA
ATOM     10  H   UNL     1      47.396   9.340  29.954  0.00  0.00    +0.210 HD
ENDBRANCH   1   9
BRANCH   2  11
ATOM     11  O   UNL     1      46.002  10.680  26.864  0.00  0.00    -0.386 OA
ATOM     12  H   UNL     1      45.012  10.681  26.949  0.00  0.00    +0.210 HD
ENDBRANCH   2  11
BRANCH   3  13
ATOM     13  O   UNL     1      46.956   7.658  28.605  0.00  0.00    -0.386 OA
ATOM     14  H   UNL     1      47.103   6.737  28.265  0.00  0.00    +0.210 HD
ENDBRANCH   3  13
BRANCH   4  15
ATOM     15  C   UNL     1      47.858   8.761  25.136  0.00  0.00    +0.190 C 
BRANCH  15  16
ATOM     16  O   UNL     1      46.601   8.298  24.723  0.00  0.00    -0.392 OA
ATOM     17  H   UNL     1      46.498   7.392  25.116  0.00  0.00    +0.210 HD
ENDBRANCH  15  16
ENDBRANCH   4  15
TORSDOF 6
ENDMDL
