MODEL 3
REMARK VINA RESULT:    -5.620      1.300      3.107
REMARK INTER + INTRA:          -6.794
REMARK INTER:                  -6.555
REMARK INTRA:                  -0.240
REMARK UNBOUND:                -0.024
REMARK  Name = BGC
REMARK  6 active torsions:
REMARK  status: ('A' for Active; 'I' for Inactive)
REMARK    1  A    between atoms: C_1  and  O_8
REMARK    2  A    between atoms: C_2  and  O_9
REMARK    3  A    between atoms: C_3  and  O_10
REMARK    4  A    between atoms: C_4  and  C_5
REMARK    5  A    between atoms: C_5  and  O_12
REMARK    6  A    between atoms: C_6  and  O_7
REMARK                            x       y       z     vdW  Elec       q    Type
REMARK                         _______ _______ _______ _____ _____    ______ ____
ROOT
ATOM      1  C   UNL     1      48.585  10.598  26.378  0.00  0.00    +0.201 C 
ATOM      2  C   UNL     1      47.619   9.548  25.802  0.00  0.00    +0.179 C 
ATOM      3  C   UNL     1      46.452   9.298  26.773  0.00  0.00    +0.177 C 
ATOM      4  C   UNL     1      46.939   9.079  28.228  0.00  0.00    +0.178 C 
ATOM      5  C   UNL     1      48.989  10.239  27.821  0.00  0.00    +0.279 C 
ATOM      6  O   UNL     1      47.867  10.063  28.674  0.00  0.00    -0.341 OA
ENDROOT
BRANCH   5   7
ATOM      7  O   UNL     1      49.830   9.114  27.859  0.00  0.00    -0.365 OA
ATOM      8  H   UNL     1      50.755   9.447  27.996  0.00  0.00    +0.213 HD
ENDBRANCH   5   7
BRANCH   1   9
ATOM      9  O   UNL     1      47.980  11.866  26.375  0.00  0.00    -0.384 OA
ATOM     10  H   UNL     1      47.771  12.088  27.321  0.00  0.00    +0.210 HD
ENDBRANCH   1   9
BRANCH   2  11
ATOM     11  O   UNL     1      48.295   8.343  25.547  0.00  0.00    -0.386 OA
ATOM     12  H   UNL     1      48.067   8.074  24.618  0.00  0.00    +0.210 HD
ENDBRANCH   2  11
BRANCH   3  13
ATOM     13  O   UNL     1      45.574  10.395  26.753  0.00  0.00    -0.386 OA
ATOM     14  H   UNL     1      45.644  10.839  27.637  0.00  0.00    +0.210 HD
ENDBRANCH   3  13
BRANCH   4  15
ATOM     15  C   UNL     1      47.403   7.637  28.517  0.00  0.00    +0.190 C 
BRANCH  15  16
ATOM     16  O   UNL     1      47.996   7.576  29.785  0.00  0.00    -0.392 OA
ATOM     17  H   UNL     1      48.613   6.798  29.764  0.00  0.00    +0.210 HD
ENDBRANCH  15  16
ENDBRANCH   4  15
TORSDOF 6
ENDMDL
