MODEL 11
REMARK VINA RESULT:    -5.259      1.216      3.725
REMARK INTER + INTRA:          -6.360
REMARK INTER:                  -6.301
REMARK INTRA:                  -0.058
REMARK UNBOUND:                -0.024
REMARK  Name = BGC
REMARK  6 active torsions:
REMARK  status: ('A' for Active; 'I' for Inactive)
REMARK    1  A    between atoms: C_1  and  O_8
REMARK    2  A    between atoms: C_2  and  O_9
REMARK    3  A    between atoms: C_3  and  O_10
REMARK    4  A    between atoms: C_4  and  C_5
REMARK    5  A    between atoms: C_5  and  O_12
REMARK    6  A    between atoms: C_6  and  O_7
REMARK                            x       y       z     vdW  Elec       q    Type
REMARK                         _______ _______ _______ _____ _____    ______ ____
ROOT
ATOM      1  C   UNL     1      47.118   7.979  25.616  0.00  0.00    +0.201 C 
ATOM      2  C   UNL     1      46.181   8.132  26.827  0.00  0.00    +0.179 C 
ATOM      3  C   UNL     1      45.918   9.619  27.123  0.00  0.00    +0.177 C 
ATOM      4  C   UNL     1      47.226  10.451  27.139  0.00  0.00    +0.178 C 
ATOM      5  C   UNL     1      48.376   8.854  25.783  0.00  0.00    +0.279 C 
ATOM      6  O   UNL     1      48.065  10.220  26.012  0.00  0.00    -0.341 OA
ENDROOT
BRANCH   5   7
ATOM      7  O   UNL     1      49.223   8.357  26.788  0.00  0.00    -0.365 OA
ATOM      8  H   UNL     1      48.810   8.595  27.660  0.00  0.00    +0.213 HD
ENDBRANCH   5   7
BRANCH   1   9
ATOM      9  O   UNL     1      46.453   8.357  24.438  0.00  0.00    -0.384 OA
ATOM     10  H   UNL     1      46.147   7.519  23.998  0.00  0.00    +0.210 HD
ENDBRANCH   1   9
BRANCH   2  11
ATOM     11  O   UNL     1      46.732   7.509  27.959  0.00  0.00    -0.386 OA
ATOM     12  H   UNL     1      46.213   7.826  28.745  0.00  0.00    +0.210 HD
ENDBRANCH   2  11
BRANCH   3  13
ATOM     13  O   UNL     1      45.059  10.152  26.147  0.00  0.00    -0.386 OA
ATOM     14  H   UNL     1      45.437   9.909  25.262  0.00  0.00    +0.210 HD
ENDBRANCH   3  13
BRANCH   4  15
ATOM     15  C   UNL     1      47.986  10.385  28.479  0.00  0.00    +0.190 C 
BRANCH  15  16
ATOM     16  O   UNL     1      48.716  11.566  28.668  0.00  0.00    -0.392 OA
ATOM     17  H   UNL     1      49.356  11.619  27.911  0.00  0.00    +0.210 HD
ENDBRANCH  15  16
ENDBRANCH   4  15
TORSDOF 6
ENDMDL
