MODEL 6
REMARK VINA RESULT:    -5.446      1.585      3.086
REMARK INTER + INTRA:          -6.585
REMARK INTER:                  -6.307
REMARK INTRA:                  -0.278
REMARK UNBOUND:                -0.024
REMARK  Name = BGC
REMARK  6 active torsions:
REMARK  status: ('A' for Active; 'I' for Inactive)
REMARK    1  A    between atoms: C_1  and  O_8
REMARK    2  A    between atoms: C_2  and  O_9
REMARK    3  A    between atoms: C_3  and  O_10
REMARK    4  A    between atoms: C_4  and  C_5
REMARK    5  A    between atoms: C_5  and  O_12
REMARK    6  A    between atoms: C_6  and  O_7
REMARK                            x       y       z     vdW  Elec       q    Type
REMARK                         _______ _______ _______ _____ _____    ______ ____
ROOT
ATOM      1  C   UNL     1      49.306  10.438  26.953  0.00  0.00    +0.201 C 
ATOM      2  C   UNL     1      47.916  10.985  27.323  0.00  0.00    +0.179 C 
ATOM      3  C   UNL     1      47.503  10.505  28.726  0.00  0.00    +0.177 C 
ATOM      4  C   UNL     1      47.730   8.983  28.913  0.00  0.00    +0.178 C 
ATOM      5  C   UNL     1      49.374   8.915  27.179  0.00  0.00    +0.279 C 
ATOM      6  O   UNL     1      49.022   8.544  28.504  0.00  0.00    -0.341 OA
ENDROOT
BRANCH   5   7
ATOM      7  O   UNL     1      48.599   8.217  26.239  0.00  0.00    -0.365 OA
ATOM      8  H   UNL     1      49.169   7.489  25.876  0.00  0.00    +0.213 HD
ENDBRANCH   5   7
BRANCH   1   9
ATOM      9  O   UNL     1      50.295  11.060  27.734  0.00  0.00    -0.384 OA
ATOM     10  H   UNL     1      51.034  11.309  27.118  0.00  0.00    +0.210 HD
ENDBRANCH   1   9
BRANCH   2  11
ATOM     11  O   UNL     1      46.959  10.581  26.378  0.00  0.00    -0.386 OA
ATOM     12  H   UNL     1      46.546  11.407  26.013  0.00  0.00    +0.210 HD
ENDBRANCH   2  11
BRANCH   3  13
ATOM     13  O   UNL     1      48.245  11.194  29.701  0.00  0.00    -0.386 OA
ATOM     14  H   UNL     1      47.592  11.626  30.311  0.00  0.00    +0.210 HD
ENDBRANCH   3  13
BRANCH   4  15
ATOM     15  C   UNL     1      46.590   8.112  28.349  0.00  0.00    +0.190 C 
BRANCH  15  16
ATOM     16  O   UNL     1      45.408   8.862  28.284  0.00  0.00    -0.392 OA
ATOM     17  H   UNL     1      44.793   8.467  28.955  0.00  0.00    +0.210 HD
ENDBRANCH  15  16
ENDBRANCH   4  15
TORSDOF 6
ENDMDL
