MODEL 16
REMARK VINA RESULT:    -5.160      1.156      3.646
REMARK INTER + INTRA:          -6.241
REMARK INTER:                  -6.067
REMARK INTRA:                  -0.174
REMARK UNBOUND:                -0.024
REMARK  Name = BGC
REMARK  6 active torsions:
REMARK  status: ('A' for Active; 'I' for Inactive)
REMARK    1  A    between atoms: C_1  and  O_8
REMARK    2  A    between atoms: C_2  and  O_9
REMARK    3  A    between atoms: C_3  and  O_10
REMARK    4  A    between atoms: C_4  and  C_5
REMARK    5  A    between atoms: C_5  and  O_12
REMARK    6  A    between atoms: C_6  and  O_7
REMARK                            x       y       z     vdW  Elec       q    Type
REMARK                         _______ _______ _______ _____ _____    ______ ____
ROOT
ATOM      1  C   UNL     1      48.402   9.390  25.971  0.00  0.00    +0.201 C 
ATOM      2  C   UNL     1      48.768   8.408  27.098  0.00  0.00    +0.179 C 
ATOM      3  C   UNL     1      47.561   8.172  28.022  0.00  0.00    +0.177 C 
ATOM      4  C   UNL     1      46.879   9.499  28.443  0.00  0.00    +0.178 C 
ATOM      5  C   UNL     1      47.747  10.662  26.544  0.00  0.00    +0.279 C 
ATOM      6  O   UNL     1      46.615  10.377  27.353  0.00  0.00    -0.341 OA
ENDROOT
BRANCH   5   7
ATOM      7  O   UNL     1      48.674  11.454  27.240  0.00  0.00    -0.365 OA
ATOM      8  H   UNL     1      48.858  12.251  26.677  0.00  0.00    +0.213 HD
ENDBRANCH   5   7
BRANCH   1   9
ATOM      9  O   UNL     1      47.510   8.783  25.070  0.00  0.00    -0.384 OA
ATOM     10  H   UNL     1      47.446   7.826  25.329  0.00  0.00    +0.210 HD
ENDBRANCH   1   9
BRANCH   2  11
ATOM     11  O   UNL     1      49.853   8.897  27.844  0.00  0.00    -0.386 OA
ATOM     12  H   UNL     1      49.677   9.859  28.015  0.00  0.00    +0.210 HD
ENDBRANCH   2  11
BRANCH   3  13
ATOM     13  O   UNL     1      46.613   7.367  27.368  0.00  0.00    -0.386 OA
ATOM     14  H   UNL     1      46.356   6.647  28.002  0.00  0.00    +0.210 HD
ENDBRANCH   3  13
BRANCH   4  15
ATOM     15  C   UNL     1      47.568  10.201  29.630  0.00  0.00    +0.190 C 
BRANCH  15  16
ATOM     16  O   UNL     1      47.206  11.555  29.654  0.00  0.00    -0.392 OA
ATOM     17  H   UNL     1      46.993  11.767  30.599  0.00  0.00    +0.210 HD
ENDBRANCH  15  16
ENDBRANCH   4  15
TORSDOF 6
ENDMDL
