MODEL 2
REMARK VINA RESULT:    -5.804      1.035      3.557
REMARK INTER + INTRA:          -7.016
REMARK INTER:                  -6.750
REMARK INTRA:                  -0.266
REMARK UNBOUND:                -0.024
REMARK  Name = BGC
REMARK  6 active torsions:
REMARK  status: ('A' for Active; 'I' for Inactive)
REMARK    1  A    between atoms: C_1  and  O_8
REMARK    2  A    between atoms: C_2  and  O_9
REMARK    3  A    between atoms: C_3  and  O_10
REMARK    4  A    between atoms: C_4  and  C_5
REMARK    5  A    between atoms: C_5  and  O_12
REMARK    6  A    between atoms: C_6  and  O_7
REMARK                            x       y       z     vdW  Elec       q    Type
REMARK                         _______ _______ _______ _____ _____    ______ ____
ROOT
ATOM      1  C   UNL     1      47.611   9.512  25.720  0.00  0.00    +0.201 C 
ATOM      2  C   UNL     1      48.631  10.455  26.381  0.00  0.00    +0.179 C 
ATOM      3  C   UNL     1      49.074   9.900  27.747  0.00  0.00    +0.177 C 
ATOM      4  C   UNL     1      47.870   9.450  28.613  0.00  0.00    +0.178 C 
ATOM      5  C   UNL     1      46.470   9.166  26.696  0.00  0.00    +0.279 C 
ATOM      6  O   UNL     1      46.945   8.619  27.918  0.00  0.00    -0.341 OA
ENDROOT
BRANCH   5   7
ATOM      7  O   UNL     1      45.636  10.271  26.931  0.00  0.00    -0.365 OA
ATOM      8  H   UNL     1      44.981   9.999  27.627  0.00  0.00    +0.213 HD
ENDBRANCH   5   7
BRANCH   1   9
ATOM      9  O   UNL     1      48.242   8.323  25.315  0.00  0.00    -0.384 OA
ATOM     10  H   UNL     1      49.008   8.585  24.738  0.00  0.00    +0.210 HD
ENDBRANCH   1   9
BRANCH   2  11
ATOM     11  O   UNL     1      48.084  11.739  26.543  0.00  0.00    -0.386 OA
ATOM     12  H   UNL     1      47.351  11.826  25.877  0.00  0.00    +0.210 HD
ENDBRANCH   2  11
BRANCH   3  13
ATOM     13  O   UNL     1      49.927   8.799  27.557  0.00  0.00    -0.386 OA
ATOM     14  H   UNL     1      50.796   9.157  27.236  0.00  0.00    +0.210 HD
ENDBRANCH   3  13
BRANCH   4  15
ATOM     15  C   UNL     1      47.189  10.604  29.376  0.00  0.00    +0.190 C 
BRANCH  15  16
ATOM     16  O   UNL     1      48.130  11.603  29.661  0.00  0.00    -0.392 OA
ATOM     17  H   UNL     1      47.738  12.152  30.389  0.00  0.00    +0.210 HD
ENDBRANCH  15  16
ENDBRANCH   4  15
TORSDOF 6
ENDMDL
