MODEL 3
REMARK VINA RESULT:    -5.476      4.409      6.473
REMARK INTER + INTRA:          -7.383
REMARK INTER:                  -6.929
REMARK INTRA:                  -0.454
REMARK UNBOUND:                -0.467
REMARK  Name = AMQ
REMARK  7 active torsions:
REMARK  status: ('A' for Active; 'I' for Inactive)
REMARK    1  A    between atoms: N_1  and  CA_2
REMARK    2  A    between atoms: CA_2  and  C_3
REMARK    3  A    between atoms: CA_2  and  C_6
REMARK    4  A    between atoms: C_3  and  OXT_5
REMARK    5  A    between atoms: C_6  and  C_7
REMARK    6  A    between atoms: C_8  and  O_11
REMARK    7  A    between atoms: C_9  and  C_10
REMARK                            x       y       z     vdW  Elec       q    Type
REMARK                         _______ _______ _______ _____ _____    ______ ____
ROOT
ATOM      1  C   UNL     1      -3.011  47.284  12.537  0.00  0.00    +0.074 C 
ENDROOT
BRANCH   1   2
ATOM      2  C   UNL     1      -2.128  48.500  12.626  0.00  0.00    +0.059 A 
ATOM      3  C   UNL     1      -1.965  49.370  13.686  0.00  0.00    +0.256 A 
ATOM      4  C   UNL     1      -1.335  49.050  11.636  0.00  0.00    +0.141 A 
ATOM      5  C   UNL     1      -1.136  48.528  10.251  0.00  0.00    +0.089 C 
ATOM      6  N   UNL     1      -1.119  50.359  13.341  0.00  0.00    -0.040 NA
ATOM      7  O   UNL     1      -0.763  50.134  12.109  0.00  0.00    -0.356 OA
BRANCH   3   8
ATOM      8  O   UNL     1      -2.569  49.282  14.936  0.00  0.00    -0.490 OA
ATOM      9  H   UNL     1      -3.454  49.735  15.130  0.00  0.00    +0.294 HD
ENDBRANCH   3   8
ENDBRANCH   1   2
BRANCH   1  10
ATOM     10  CA  UNL     1      -2.556  46.171  13.498  0.00  0.00    +0.165 C 
BRANCH  10  11
ATOM     11  N   UNL     1      -2.210  44.955  12.758  0.00  0.00    -0.318 NA
ATOM     12  H1  UNL     1      -3.093  44.456  12.509  0.00  0.00    +0.119 HD
ATOM     13  H2  UNL     1      -1.782  45.233  11.846  0.00  0.00    +0.119 HD
ENDBRANCH  10  11
BRANCH  10  14
ATOM     14  C   UNL     1      -3.662  45.872  14.470  0.00  0.00    +0.322 C 
ATOM     15  O   UNL     1      -4.424  46.797  14.863  0.00  0.00    -0.249 OA
BRANCH  14  16
ATOM     16  OXT UNL     1      -3.866  44.569  14.914  0.00  0.00    -0.480 OA
ATOM     17  HXT UNL     1      -4.801  44.190  14.998  0.00  0.00    +0.295 HD
ENDBRANCH  14  16
ENDBRANCH  10  14
ENDBRANCH   1  10
TORSDOF 6
ENDMDL
