MODEL 1
REMARK VINA RESULT:    -5.668      0.000      0.000
REMARK INTER + INTRA:          -7.626
REMARK INTER:                  -7.159
REMARK INTRA:                  -0.467
REMARK UNBOUND:                -0.467
REMARK  Name = AMQ
REMARK  7 active torsions:
REMARK  status: ('A' for Active; 'I' for Inactive)
REMARK    1  A    between atoms: N_1  and  CA_2
REMARK    2  A    between atoms: CA_2  and  C_3
REMARK    3  A    between atoms: CA_2  and  C_6
REMARK    4  A    between atoms: C_3  and  OXT_5
REMARK    5  A    between atoms: C_6  and  C_7
REMARK    6  A    between atoms: C_8  and  O_11
REMARK    7  A    between atoms: C_9  and  C_10
REMARK                            x       y       z     vdW  Elec       q    Type
REMARK                         _______ _______ _______ _____ _____    ______ ____
ROOT
ATOM      1  C   UNL     1      -1.767  49.534   8.873  0.00  0.00    +0.074 C 
ENDROOT
BRANCH   1   2
ATOM      2  C   UNL     1      -1.611  48.723   7.615  0.00  0.00    +0.059 A 
ATOM      3  C   UNL     1      -0.491  48.569   6.823  0.00  0.00    +0.256 A 
ATOM      4  C   UNL     1      -2.582  48.006   6.940  0.00  0.00    +0.141 A 
ATOM      5  C   UNL     1      -4.010  47.833   7.337  0.00  0.00    +0.089 C 
ATOM      6  N   UNL     1      -0.784  47.800   5.758  0.00  0.00    -0.040 NA
ATOM      7  O   UNL     1      -2.043  47.481   5.862  0.00  0.00    -0.356 OA
BRANCH   3   8
ATOM      8  O   UNL     1       0.769  49.116   7.048  0.00  0.00    -0.490 OA
ATOM      9  H   UNL     1       1.305  48.888   7.876  0.00  0.00    +0.294 HD
ENDBRANCH   3   8
ENDBRANCH   1   2
BRANCH   1  10
ATOM     10  CA  UNL     1      -0.902  48.985  10.023  0.00  0.00    +0.165 C 
BRANCH  10  11
ATOM     11  N   UNL     1      -1.735  48.629  11.175  0.00  0.00    -0.318 NA
ATOM     12  H1  UNL     1      -2.654  49.117  11.083  0.00  0.00    +0.119 HD
ATOM     13  H2  UNL     1      -1.955  47.608  11.121  0.00  0.00    +0.119 HD
ENDBRANCH  10  11
BRANCH  10  14
ATOM     14  C   UNL     1       0.102  50.025  10.428  0.00  0.00    +0.322 C 
ATOM     15  O   UNL     1       0.492  50.095  11.625  0.00  0.00    -0.249 OA
BRANCH  14  16
ATOM     16  OXT UNL     1       0.627  50.895   9.476  0.00  0.00    -0.480 OA
ATOM     17  HXT UNL     1       1.263  51.636   9.745  0.00  0.00    +0.295 HD
ENDBRANCH  14  16
ENDBRANCH  10  14
ENDBRANCH   1  10
TORSDOF 6
ENDMDL
