MODEL 12
REMARK VINA RESULT:    -5.090      3.692      4.172
REMARK INTER + INTRA:          -6.896
REMARK INTER:                  -6.436
REMARK INTRA:                  -0.460
REMARK UNBOUND:                -0.467
REMARK  Name = AMQ
REMARK  7 active torsions:
REMARK  status: ('A' for Active; 'I' for Inactive)
REMARK    1  A    between atoms: N_1  and  CA_2
REMARK    2  A    between atoms: CA_2  and  C_3
REMARK    3  A    between atoms: CA_2  and  C_6
REMARK    4  A    between atoms: C_3  and  OXT_5
REMARK    5  A    between atoms: C_6  and  C_7
REMARK    6  A    between atoms: C_8  and  O_11
REMARK    7  A    between atoms: C_9  and  C_10
REMARK                            x       y       z     vdW  Elec       q    Type
REMARK                         _______ _______ _______ _____ _____    ______ ____
ROOT
ATOM      1  C   UNL     1      -1.381  47.241  10.849  0.00  0.00    +0.074 C 
ENDROOT
BRANCH   1   2
ATOM      2  C   UNL     1      -0.913  46.764   9.501  0.00  0.00    +0.059 A 
ATOM      3  C   UNL     1      -0.107  45.684   9.201  0.00  0.00    +0.256 A 
ATOM      4  C   UNL     1      -1.135  47.348   8.267  0.00  0.00    +0.141 A 
ATOM      5  C   UNL     1      -1.941  48.574   7.986  0.00  0.00    +0.089 C 
ATOM      6  N   UNL     1       0.117  45.632   7.875  0.00  0.00    -0.040 NA
ATOM      7  O   UNL     1      -0.514  46.642   7.349  0.00  0.00    -0.356 OA
BRANCH   3   8
ATOM      8  O   UNL     1       0.424  44.766  10.103  0.00  0.00    -0.490 OA
ATOM      9  H   UNL     1       0.030  44.644  11.028  0.00  0.00    +0.294 HD
ENDBRANCH   3   8
ENDBRANCH   1   2
BRANCH   1  10
ATOM     10  CA  UNL     1      -2.671  46.527  11.296  0.00  0.00    +0.165 C 
BRANCH  10  11
ATOM     11  N   UNL     1      -3.523  47.431  12.071  0.00  0.00    -0.318 NA
ATOM     12  H1  UNL     1      -4.394  47.617  11.524  0.00  0.00    +0.119 HD
ATOM     13  H2  UNL     1      -3.839  46.931  12.933  0.00  0.00    +0.119 HD
ENDBRANCH  10  11
BRANCH  10  14
ATOM     14  C   UNL     1      -2.311  45.332  12.132  0.00  0.00    +0.322 C 
ATOM     15  O   UNL     1      -2.174  44.201  11.592  0.00  0.00    -0.249 OA
BRANCH  14  16
ATOM     16  OXT UNL     1      -2.099  45.478  13.500  0.00  0.00    -0.480 OA
ATOM     17  HXT UNL     1      -2.572  44.878  14.165  0.00  0.00    +0.295 HD
ENDBRANCH  14  16
ENDBRANCH  10  14
ENDBRANCH   1  10
TORSDOF 6
ENDMDL
