MODEL 9
REMARK VINA RESULT:    -5.122      2.843      3.656
REMARK INTER + INTRA:          -6.936
REMARK INTER:                  -6.722
REMARK INTRA:                  -0.214
REMARK UNBOUND:                -0.467
REMARK  Name = AMQ
REMARK  7 active torsions:
REMARK  status: ('A' for Active; 'I' for Inactive)
REMARK    1  A    between atoms: N_1  and  CA_2
REMARK    2  A    between atoms: CA_2  and  C_3
REMARK    3  A    between atoms: CA_2  and  C_6
REMARK    4  A    between atoms: C_3  and  OXT_5
REMARK    5  A    between atoms: C_6  and  C_7
REMARK    6  A    between atoms: C_8  and  O_11
REMARK    7  A    between atoms: C_9  and  C_10
REMARK                            x       y       z     vdW  Elec       q    Type
REMARK                         _______ _______ _______ _____ _____    ______ ____
ROOT
ATOM      1  C   UNL     1      -0.069  50.059  12.204  0.00  0.00    +0.074 C 
ENDROOT
BRANCH   1   2
ATOM      2  C   UNL     1      -0.705  49.723  10.882  0.00  0.00    +0.059 A 
ATOM      3  C   UNL     1      -0.385  50.199   9.626  0.00  0.00    +0.256 A 
ATOM      4  C   UNL     1      -1.798  48.910  10.646  0.00  0.00    +0.141 A 
ATOM      5  C   UNL     1      -2.575  48.133  11.657  0.00  0.00    +0.089 C 
ATOM      6  N   UNL     1      -1.229  49.687   8.711  0.00  0.00    -0.040 NA
ATOM      7  O   UNL     1      -2.060  48.920   9.357  0.00  0.00    -0.356 OA
BRANCH   3   8
ATOM      8  O   UNL     1       0.642  51.084   9.309  0.00  0.00    -0.490 OA
ATOM      9  H   UNL     1       1.603  50.773   9.229  0.00  0.00    +0.294 HD
ENDBRANCH   3   8
ENDBRANCH   1   2
BRANCH   1  10
ATOM     10  CA  UNL     1      -0.321  51.523  12.608  0.00  0.00    +0.165 C 
BRANCH  10  11
ATOM     11  N   UNL     1      -1.367  52.120  11.774  0.00  0.00    -0.318 NA
ATOM     12  H1  UNL     1      -2.298  51.843  12.160  0.00  0.00    +0.119 HD
ATOM     13  H2  UNL     1      -1.321  53.160  11.879  0.00  0.00    +0.119 HD
ENDBRANCH  10  11
BRANCH  10  14
ATOM     14  C   UNL     1       0.953  52.305  12.455  0.00  0.00    +0.322 C 
ATOM     15  O   UNL     1       1.216  52.877  11.363  0.00  0.00    -0.249 OA
BRANCH  14  16
ATOM     16  OXT UNL     1       1.830  52.424  13.530  0.00  0.00    -0.480 OA
ATOM     17  HXT UNL     1       2.329  53.289  13.698  0.00  0.00    +0.295 HD
ENDBRANCH  14  16
ENDBRANCH  10  14
ENDBRANCH   1  10
TORSDOF 6
ENDMDL
