MODEL 11
REMARK VINA RESULT:    -5.098      4.171      5.287
REMARK INTER + INTRA:          -6.906
REMARK INTER:                  -6.661
REMARK INTRA:                  -0.245
REMARK UNBOUND:                -0.467
REMARK  Name = AMQ
REMARK  7 active torsions:
REMARK  status: ('A' for Active; 'I' for Inactive)
REMARK    1  A    between atoms: N_1  and  CA_2
REMARK    2  A    between atoms: CA_2  and  C_3
REMARK    3  A    between atoms: CA_2  and  C_6
REMARK    4  A    between atoms: C_3  and  OXT_5
REMARK    5  A    between atoms: C_6  and  C_7
REMARK    6  A    between atoms: C_8  and  O_11
REMARK    7  A    between atoms: C_9  and  C_10
REMARK                            x       y       z     vdW  Elec       q    Type
REMARK                         _______ _______ _______ _____ _____    ______ ____
ROOT
ATOM      1  C   UNL     1      -0.597  49.863  12.234  0.00  0.00    +0.074 C 
ENDROOT
BRANCH   1   2
ATOM      2  C   UNL     1      -1.823  49.092  12.643  0.00  0.00    +0.059 A 
ATOM      3  C   UNL     1      -2.156  48.602  13.891  0.00  0.00    +0.256 A 
ATOM      4  C   UNL     1      -2.856  48.646  11.839  0.00  0.00    +0.141 A 
ATOM      5  C   UNL     1      -3.014  48.874  10.372  0.00  0.00    +0.089 C 
ATOM      6  N   UNL     1      -3.317  47.924  13.823  0.00  0.00    -0.040 NA
ATOM      7  O   UNL     1      -3.706  47.972  12.581  0.00  0.00    -0.356 OA
BRANCH   3   8
ATOM      8  O   UNL     1      -1.427  48.755  15.066  0.00  0.00    -0.490 OA
ATOM      9  H   UNL     1      -1.860  49.090  15.918  0.00  0.00    +0.294 HD
ENDBRANCH   3   8
ENDBRANCH   1   2
BRANCH   1  10
ATOM     10  CA  UNL     1      -0.690  51.347  12.637  0.00  0.00    +0.165 C 
BRANCH  10  11
ATOM     11  N   UNL     1      -1.634  52.062  11.775  0.00  0.00    -0.318 NA
ATOM     12  H1  UNL     1      -1.165  52.260  10.862  0.00  0.00    +0.119 HD
ATOM     13  H2  UNL     1      -2.426  51.418  11.545  0.00  0.00    +0.119 HD
ENDBRANCH  10  11
BRANCH  10  14
ATOM     14  C   UNL     1       0.670  51.976  12.527  0.00  0.00    +0.322 C 
ATOM     15  O   UNL     1       1.551  51.732  13.395  0.00  0.00    -0.249 OA
BRANCH  14  16
ATOM     16  OXT UNL     1       0.969  52.804  11.449  0.00  0.00    -0.480 OA
ATOM     17  HXT UNL     1       1.553  52.477  10.689  0.00  0.00    +0.295 HD
ENDBRANCH  14  16
ENDBRANCH  10  14
ENDBRANCH   1  10
TORSDOF 6
ENDMDL
