MODEL 19
REMARK VINA RESULT:    -4.969      3.841      5.836
REMARK INTER + INTRA:          -6.744
REMARK INTER:                  -6.248
REMARK INTRA:                  -0.496
REMARK UNBOUND:                -0.467
REMARK  Name = AMQ
REMARK  7 active torsions:
REMARK  status: ('A' for Active; 'I' for Inactive)
REMARK    1  A    between atoms: N_1  and  CA_2
REMARK    2  A    between atoms: CA_2  and  C_3
REMARK    3  A    between atoms: CA_2  and  C_6
REMARK    4  A    between atoms: C_3  and  OXT_5
REMARK    5  A    between atoms: C_6  and  C_7
REMARK    6  A    between atoms: C_8  and  O_11
REMARK    7  A    between atoms: C_9  and  C_10
REMARK                            x       y       z     vdW  Elec       q    Type
REMARK                         _______ _______ _______ _____ _____    ______ ____
ROOT
ATOM      1  C   UNL     1      -2.816  47.211  10.619  0.00  0.00    +0.074 C 
ENDROOT
BRANCH   1   2
ATOM      2  C   UNL     1      -2.505  46.737  12.013  0.00  0.00    +0.059 A 
ATOM      3  C   UNL     1      -2.399  45.442  12.479  0.00  0.00    +0.256 A 
ATOM      4  C   UNL     1      -2.322  47.502  13.151  0.00  0.00    +0.141 A 
ATOM      5  C   UNL     1      -2.346  48.992  13.245  0.00  0.00    +0.089 C 
ATOM      6  N   UNL     1      -2.157  45.448  13.803  0.00  0.00    -0.040 NA
ATOM      7  O   UNL     1      -2.117  46.697  14.170  0.00  0.00    -0.356 OA
BRANCH   3   8
ATOM      8  O   UNL     1      -2.525  44.276  11.731  0.00  0.00    -0.490 OA
ATOM      9  H   UNL     1      -2.978  43.451  12.107  0.00  0.00    +0.294 HD
ENDBRANCH   3   8
ENDBRANCH   1   2
BRANCH   1  10
ATOM     10  CA  UNL     1      -1.539  47.548   9.828  0.00  0.00    +0.165 C 
BRANCH  10  11
ATOM     11  N   UNL     1      -1.776  48.664   8.909  0.00  0.00    -0.318 NA
ATOM     12  H1  UNL     1      -0.880  48.885   8.417  0.00  0.00    +0.119 HD
ATOM     13  H2  UNL     1      -2.431  48.343   8.160  0.00  0.00    +0.119 HD
ENDBRANCH  10  11
BRANCH  10  14
ATOM     14  C   UNL     1      -1.105  46.338   9.050  0.00  0.00    +0.322 C 
ATOM     15  O   UNL     1       0.038  46.306   8.517  0.00  0.00    -0.249 OA
BRANCH  14  16
ATOM     16  OXT UNL     1      -1.952  45.239   8.942  0.00  0.00    -0.480 OA
ATOM     17  HXT UNL     1      -2.804  45.292   8.397  0.00  0.00    +0.295 HD
ENDBRANCH  14  16
ENDBRANCH  10  14
ENDBRANCH   1  10
TORSDOF 6
ENDMDL
