MODEL 15
REMARK VINA RESULT:    -5.022      3.853      4.727
REMARK INTER + INTRA:          -6.810
REMARK INTER:                  -6.522
REMARK INTRA:                  -0.288
REMARK UNBOUND:                -0.467
REMARK  Name = AMQ
REMARK  7 active torsions:
REMARK  status: ('A' for Active; 'I' for Inactive)
REMARK    1  A    between atoms: N_1  and  CA_2
REMARK    2  A    between atoms: CA_2  and  C_3
REMARK    3  A    between atoms: CA_2  and  C_6
REMARK    4  A    between atoms: C_3  and  OXT_5
REMARK    5  A    between atoms: C_6  and  C_7
REMARK    6  A    between atoms: C_8  and  O_11
REMARK    7  A    between atoms: C_9  and  C_10
REMARK                            x       y       z     vdW  Elec       q    Type
REMARK                         _______ _______ _______ _____ _____    ______ ____
ROOT
ATOM      1  C   UNL     1      -2.503  46.181  10.601  0.00  0.00    +0.074 C 
ENDROOT
BRANCH   1   2
ATOM      2  C   UNL     1      -1.239  46.879  10.178  0.00  0.00    +0.059 A 
ATOM      3  C   UNL     1      -0.127  46.347   9.556  0.00  0.00    +0.256 A 
ATOM      4  C   UNL     1      -0.887  48.201  10.384  0.00  0.00    +0.141 A 
ATOM      5  C   UNL     1      -1.713  49.259  11.038  0.00  0.00    +0.089 C 
ATOM      6  N   UNL     1       0.810  47.299   9.396  0.00  0.00    -0.040 NA
ATOM      7  O   UNL     1       0.320  48.395   9.902  0.00  0.00    -0.356 OA
BRANCH   3   8
ATOM      8  O   UNL     1       0.045  45.028   9.146  0.00  0.00    -0.490 OA
ATOM      9  H   UNL     1       0.199  44.282   9.813  0.00  0.00    +0.294 HD
ENDBRANCH   3   8
ENDBRANCH   1   2
BRANCH   1  10
ATOM     10  CA  UNL     1      -2.242  45.133  11.699  0.00  0.00    +0.165 C 
BRANCH  10  11
ATOM     11  N   UNL     1      -3.084  43.951  11.499  0.00  0.00    -0.318 NA
ATOM     12  H1  UNL     1      -3.337  43.890  10.487  0.00  0.00    +0.119 HD
ATOM     13  H2  UNL     1      -2.509  43.099  11.693  0.00  0.00    +0.119 HD
ENDBRANCH  10  11
BRANCH  10  14
ATOM     14  C   UNL     1      -2.535  45.740  13.042  0.00  0.00    +0.322 C 
ATOM     15  O   UNL     1      -1.980  45.281  14.077  0.00  0.00    -0.249 OA
BRANCH  14  16
ATOM     16  OXT UNL     1      -3.396  46.829  13.141  0.00  0.00    -0.480 OA
ATOM     17  HXT UNL     1      -4.399  46.696  13.189  0.00  0.00    +0.295 HD
ENDBRANCH  14  16
ENDBRANCH  10  14
ENDBRANCH   1  10
TORSDOF 6
ENDMDL
