MODEL 2
REMARK VINA RESULT:    -5.540      4.932      7.181
REMARK INTER + INTRA:          -7.464
REMARK INTER:                  -7.125
REMARK INTRA:                  -0.340
REMARK UNBOUND:                -0.467
REMARK  Name = AMQ
REMARK  7 active torsions:
REMARK  status: ('A' for Active; 'I' for Inactive)
REMARK    1  A    between atoms: N_1  and  CA_2
REMARK    2  A    between atoms: CA_2  and  C_3
REMARK    3  A    between atoms: CA_2  and  C_6
REMARK    4  A    between atoms: C_3  and  OXT_5
REMARK    5  A    between atoms: C_6  and  C_7
REMARK    6  A    between atoms: C_8  and  O_11
REMARK    7  A    between atoms: C_9  and  C_10
REMARK                            x       y       z     vdW  Elec       q    Type
REMARK                         _______ _______ _______ _____ _____    ______ ____
ROOT
ATOM      1  C   UNL     1      -2.408  45.494  12.050  0.00  0.00    +0.074 C 
ENDROOT
BRANCH   1   2
ATOM      2  C   UNL     1      -2.938  46.284  13.215  0.00  0.00    +0.059 A 
ATOM      3  C   UNL     1      -3.688  45.840  14.287  0.00  0.00    +0.256 A 
ATOM      4  C   UNL     1      -2.847  47.647  13.432  0.00  0.00    +0.141 A 
ATOM      5  C   UNL     1      -2.150  48.648  12.571  0.00  0.00    +0.089 C 
ATOM      6  N   UNL     1      -4.003  46.876  15.087  0.00  0.00    -0.040 NA
ATOM      7  O   UNL     1      -3.483  47.940  14.544  0.00  0.00    -0.356 OA
BRANCH   3   8
ATOM      8  O   UNL     1      -4.087  44.531  14.538  0.00  0.00    -0.490 OA
ATOM      9  H   UNL     1      -4.005  44.120  15.460  0.00  0.00    +0.294 HD
ENDBRANCH   3   8
ENDBRANCH   1   2
BRANCH   1  10
ATOM     10  CA  UNL     1      -3.541  44.924  11.177  0.00  0.00    +0.165 C 
BRANCH  10  11
ATOM     11  N   UNL     1      -3.653  43.474  11.351  0.00  0.00    -0.318 NA
ATOM     12  H1  UNL     1      -4.656  43.237  11.527  0.00  0.00    +0.119 HD
ATOM     13  H2  UNL     1      -3.413  43.012  10.444  0.00  0.00    +0.119 HD
ENDBRANCH  10  11
BRANCH  10  14
ATOM     14  C   UNL     1      -3.262  45.239   9.735  0.00  0.00    +0.322 C 
ATOM     15  O   UNL     1      -2.845  46.382   9.407  0.00  0.00    -0.249 OA
BRANCH  14  16
ATOM     16  OXT UNL     1      -3.434  44.258   8.762  0.00  0.00    -0.480 OA
ATOM     17  HXT UNL     1      -4.045  43.467   8.924  0.00  0.00    +0.295 HD
ENDBRANCH  14  16
ENDBRANCH  10  14
ENDBRANCH   1  10
TORSDOF 6
ENDMDL
