MODEL 6
REMARK VINA RESULT:    -5.297      1.629      4.625
REMARK INTER + INTRA:          -7.157
REMARK INTER:                  -6.794
REMARK INTRA:                  -0.363
REMARK UNBOUND:                -0.467
REMARK  Name = AMQ
REMARK  7 active torsions:
REMARK  status: ('A' for Active; 'I' for Inactive)
REMARK    1  A    between atoms: N_1  and  CA_2
REMARK    2  A    between atoms: CA_2  and  C_3
REMARK    3  A    between atoms: CA_2  and  C_6
REMARK    4  A    between atoms: C_3  and  OXT_5
REMARK    5  A    between atoms: C_6  and  C_7
REMARK    6  A    between atoms: C_8  and  O_11
REMARK    7  A    between atoms: C_9  and  C_10
REMARK                            x       y       z     vdW  Elec       q    Type
REMARK                         _______ _______ _______ _____ _____    ______ ____
ROOT
ATOM      1  C   UNL     1      -1.557  49.057   8.157  0.00  0.00    +0.074 C 
ENDROOT
BRANCH   1   2
ATOM      2  C   UNL     1      -1.031  49.428   9.517  0.00  0.00    +0.059 A 
ATOM      3  C   UNL     1      -0.129  50.420   9.851  0.00  0.00    +0.256 A 
ATOM      4  C   UNL     1      -1.287  48.809  10.726  0.00  0.00    +0.141 A 
ATOM      5  C   UNL     1      -2.192  47.646  10.966  0.00  0.00    +0.089 C 
ATOM      6  N   UNL     1       0.116  50.391  11.174  0.00  0.00    -0.040 NA
ATOM      7  O   UNL     1      -0.594  49.415  11.664  0.00  0.00    -0.356 OA
BRANCH   3   8
ATOM      8  O   UNL     1       0.467  51.329   8.982  0.00  0.00    -0.490 OA
ATOM      9  H   UNL     1       0.227  52.313   8.998  0.00  0.00    +0.294 HD
ENDBRANCH   3   8
ENDBRANCH   1   2
BRANCH   1  10
ATOM     10  CA  UNL     1      -0.546  48.214   7.359  0.00  0.00    +0.165 C 
BRANCH  10  11
ATOM     11  N   UNL     1       0.374  49.076   6.611  0.00  0.00    -0.318 NA
ATOM     12  H1  UNL     1       0.496  48.678   5.652  0.00  0.00    +0.119 HD
ATOM     13  H2  UNL     1      -0.084  50.005   6.470  0.00  0.00    +0.119 HD
ENDBRANCH  10  11
BRANCH  10  14
ATOM     14  C   UNL     1      -1.288  47.322   6.405  0.00  0.00    +0.322 C 
ATOM     15  O   UNL     1      -2.417  47.670   5.963  0.00  0.00    -0.249 OA
BRANCH  14  16
ATOM     16  OXT UNL     1      -0.718  46.124   5.984  0.00  0.00    -0.480 OA
ATOM     17  HXT UNL     1      -0.050  46.106   5.222  0.00  0.00    +0.295 HD
ENDBRANCH  14  16
ENDBRANCH  10  14
ENDBRANCH   1  10
TORSDOF 6
ENDMDL
