MODEL 5
REMARK VINA RESULT:    -5.337      1.640      1.666
REMARK INTER + INTRA:          -7.208
REMARK INTER:                  -6.830
REMARK INTRA:                  -0.378
REMARK UNBOUND:                -0.467
REMARK  Name = AMQ
REMARK  7 active torsions:
REMARK  status: ('A' for Active; 'I' for Inactive)
REMARK    1  A    between atoms: N_1  and  CA_2
REMARK    2  A    between atoms: CA_2  and  C_3
REMARK    3  A    between atoms: CA_2  and  C_6
REMARK    4  A    between atoms: C_3  and  OXT_5
REMARK    5  A    between atoms: C_6  and  C_7
REMARK    6  A    between atoms: C_8  and  O_11
REMARK    7  A    between atoms: C_9  and  C_10
REMARK                            x       y       z     vdW  Elec       q    Type
REMARK                         _______ _______ _______ _____ _____    ______ ____
ROOT
ATOM      1  C   UNL     1      -1.066  48.828   9.174  0.00  0.00    +0.074 C 
ENDROOT
BRANCH   1   2
ATOM      2  C   UNL     1      -1.290  48.429   7.740  0.00  0.00    +0.059 A 
ATOM      3  C   UNL     1      -0.428  48.550   6.667  0.00  0.00    +0.256 A 
ATOM      4  C   UNL     1      -2.438  47.911   7.170  0.00  0.00    +0.141 A 
ATOM      5  C   UNL     1      -3.718  47.583   7.867  0.00  0.00    +0.089 C 
ATOM      6  N   UNL     1      -1.031  48.119   5.543  0.00  0.00    -0.040 NA
ATOM      7  O   UNL     1      -2.231  47.744   5.883  0.00  0.00    -0.356 OA
BRANCH   3   8
ATOM      8  O   UNL     1       0.871  49.046   6.696  0.00  0.00    -0.490 OA
ATOM      9  H   UNL     1       1.157  49.818   6.105  0.00  0.00    +0.294 HD
ENDBRANCH   3   8
ENDBRANCH   1   2
BRANCH   1  10
ATOM     10  CA  UNL     1      -0.932  50.354   9.332  0.00  0.00    +0.165 C 
BRANCH  10  11
ATOM     11  N   UNL     1       0.477  50.755   9.334  0.00  0.00    -0.318 NA
ATOM     12  H1  UNL     1       1.066  49.898   9.232  0.00  0.00    +0.119 HD
ATOM     13  H2  UNL     1       0.661  51.322   8.475  0.00  0.00    +0.119 HD
ENDBRANCH  10  11
BRANCH  10  14
ATOM     14  C   UNL     1      -1.580  50.777  10.620  0.00  0.00    +0.322 C 
ATOM     15  O   UNL     1      -1.943  49.908  11.459  0.00  0.00    -0.249 OA
BRANCH  14  16
ATOM     16  OXT UNL     1      -1.751  52.129  10.903  0.00  0.00    -0.480 OA
ATOM     17  HXT UNL     1      -1.011  52.665  11.340  0.00  0.00    +0.295 HD
ENDBRANCH  14  16
ENDBRANCH  10  14
ENDBRANCH   1  10
TORSDOF 6
ENDMDL
