MODEL 16
REMARK VINA RESULT:    -5.001      2.906      3.707
REMARK INTER + INTRA:          -6.784
REMARK INTER:                  -6.489
REMARK INTRA:                  -0.294
REMARK UNBOUND:                -0.467
REMARK  Name = AMQ
REMARK  7 active torsions:
REMARK  status: ('A' for Active; 'I' for Inactive)
REMARK    1  A    between atoms: N_1  and  CA_2
REMARK    2  A    between atoms: CA_2  and  C_3
REMARK    3  A    between atoms: CA_2  and  C_6
REMARK    4  A    between atoms: C_3  and  OXT_5
REMARK    5  A    between atoms: C_6  and  C_7
REMARK    6  A    between atoms: C_8  and  O_11
REMARK    7  A    between atoms: C_9  and  C_10
REMARK                            x       y       z     vdW  Elec       q    Type
REMARK                         _______ _______ _______ _____ _____    ______ ____
ROOT
ATOM      1  C   UNL     1      -2.250  47.118   8.788  0.00  0.00    +0.074 C 
ENDROOT
BRANCH   1   2
ATOM      2  C   UNL     1      -1.312  47.580   7.706  0.00  0.00    +0.059 A 
ATOM      3  C   UNL     1      -1.013  46.968   6.505  0.00  0.00    +0.256 A 
ATOM      4  C   UNL     1      -0.490  48.692   7.710  0.00  0.00    +0.141 A 
ATOM      5  C   UNL     1      -0.382  49.725   8.783  0.00  0.00    +0.089 C 
ATOM      6  N   UNL     1      -0.085  47.683   5.843  0.00  0.00    -0.040 NA
ATOM      7  O   UNL     1       0.204  48.708   6.594  0.00  0.00    -0.356 OA
BRANCH   3   8
ATOM      8  O   UNL     1      -1.558  45.784   6.016  0.00  0.00    -0.490 OA
ATOM      9  H   UNL     1      -1.602  45.592   5.023  0.00  0.00    +0.294 HD
ENDBRANCH   3   8
ENDBRANCH   1   2
BRANCH   1  10
ATOM     10  CA  UNL     1      -1.846  45.743   9.351  0.00  0.00    +0.165 C 
BRANCH  10  11
ATOM     11  N   UNL     1      -2.812  44.715   8.954  0.00  0.00    -0.318 NA
ATOM     12  H1  UNL     1      -2.798  44.631   7.913  0.00  0.00    +0.119 HD
ATOM     13  H2  UNL     1      -2.477  43.791   9.311  0.00  0.00    +0.119 HD
ENDBRANCH  10  11
BRANCH  10  14
ATOM     14  C   UNL     1      -1.780  45.821  10.850  0.00  0.00    +0.322 C 
ATOM     15  O   UNL     1      -1.956  46.925  11.433  0.00  0.00    -0.249 OA
BRANCH  14  16
ATOM     16  OXT UNL     1      -1.554  44.670  11.598  0.00  0.00    -0.480 OA
ATOM     17  HXT UNL     1      -0.612  44.381  11.836  0.00  0.00    +0.295 HD
ENDBRANCH  14  16
ENDBRANCH  10  14
ENDBRANCH   1  10
TORSDOF 6
ENDMDL
