MODEL 20
REMARK VINA RESULT:    -4.839      3.587      4.767
REMARK INTER + INTRA:          -6.579
REMARK INTER:                  -6.130
REMARK INTRA:                  -0.448
REMARK UNBOUND:                -0.467
REMARK  Name = AMQ
REMARK  7 active torsions:
REMARK  status: ('A' for Active; 'I' for Inactive)
REMARK    1  A    between atoms: N_1  and  CA_2
REMARK    2  A    between atoms: CA_2  and  C_3
REMARK    3  A    between atoms: CA_2  and  C_6
REMARK    4  A    between atoms: C_3  and  OXT_5
REMARK    5  A    between atoms: C_6  and  C_7
REMARK    6  A    between atoms: C_8  and  O_11
REMARK    7  A    between atoms: C_9  and  C_10
REMARK                            x       y       z     vdW  Elec       q    Type
REMARK                         _______ _______ _______ _____ _____    ______ ____
ROOT
ATOM      1  C   UNL     1      -2.559  48.241  11.503  0.00  0.00    +0.074 C 
ENDROOT
BRANCH   1   2
ATOM      2  C   UNL     1      -2.306  46.810  11.894  0.00  0.00    +0.059 A 
ATOM      3  C   UNL     1      -1.761  45.793  11.136  0.00  0.00    +0.256 A 
ATOM      4  C   UNL     1      -2.628  46.184  13.084  0.00  0.00    +0.141 A 
ATOM      5  C   UNL     1      -3.264  46.806  14.283  0.00  0.00    +0.089 C 
ATOM      6  N   UNL     1      -1.753  44.647  11.842  0.00  0.00    -0.040 NA
ATOM      7  O   UNL     1      -2.278  44.919  13.002  0.00  0.00    -0.356 OA
BRANCH   3   8
ATOM      8  O   UNL     1      -1.287  45.890   9.831  0.00  0.00    -0.490 OA
ATOM      9  H   UNL     1      -0.745  45.147   9.407  0.00  0.00    +0.294 HD
ENDBRANCH   3   8
ENDBRANCH   1   2
BRANCH   1  10
ATOM     10  CA  UNL     1      -1.508  49.195  12.099  0.00  0.00    +0.165 C 
BRANCH  10  11
ATOM     11  N   UNL     1      -2.136  50.433  12.567  0.00  0.00    -0.318 NA
ATOM     12  H1  UNL     1      -2.559  50.921  11.746  0.00  0.00    +0.119 HD
ATOM     13  H2  UNL     1      -2.941  50.182  13.186  0.00  0.00    +0.119 HD
ENDBRANCH  10  11
BRANCH  10  14
ATOM     14  C   UNL     1      -0.480  49.516  11.052  0.00  0.00    +0.322 C 
ATOM     15  O   UNL     1       0.389  50.403  11.270  0.00  0.00    -0.249 OA
BRANCH  14  16
ATOM     16  OXT UNL     1      -0.466  48.813   9.850  0.00  0.00    -0.480 OA
ATOM     17  HXT UNL     1       0.291  48.931   9.188  0.00  0.00    +0.295 HD
ENDBRANCH  14  16
ENDBRANCH  10  14
ENDBRANCH   1  10
TORSDOF 6
ENDMDL
