MODEL 16
REMARK VINA RESULT:    -6.693      5.179      8.003
REMARK INTER + INTRA:         -11.363
REMARK INTER:                 -10.244
REMARK INTRA:                  -1.119
REMARK UNBOUND:                -1.343
REMARK  Name = UDP
REMARK  11 active torsions:
REMARK  status: ('A' for Active; 'I' for Inactive)
REMARK    1  A    between atoms: N_1  and  C_9
REMARK    2  A    between atoms: C_10  and  O_11
REMARK    3  A    between atoms: C_12  and  O_15
REMARK    4  A    between atoms: C_13  and  C_16
REMARK    5  A    between atoms: C_16  and  O_17
REMARK    6  A    between atoms: O_17  and  P_18
REMARK    7  A    between atoms: P_18  and  O_20
REMARK    8  A    between atoms: P_18  and  O_21
REMARK    9  A    between atoms: O_21  and  P_22
REMARK   10  A    between atoms: P_22  and  O_24
REMARK   11  A    between atoms: P_22  and  O_25
REMARK                            x       y       z     vdW  Elec       q    Type
REMARK                         _______ _______ _______ _____ _____    ______ ____
ROOT
ATOM      1  C   UNL     1      57.628  18.563  -6.073  0.00  0.00    +0.255 C 
ATOM      2  C   UNL     1      57.445  17.377  -7.036  0.00  0.00    +0.195 C 
ATOM      3  C   UNL     1      56.346  16.554  -6.389  0.00  0.00    +0.178 C 
ATOM      4  C   UNL     1      55.710  17.546  -5.423  0.00  0.00    +0.178 C 
ATOM      5  O   UNL     1      56.713  18.441  -5.003  0.00  0.00    -0.346 OA
ENDROOT
BRANCH   1   6
ATOM      6  N   UNL     1      59.013  18.623  -5.561  0.00  0.00    -0.271 N 
ATOM      7  C   UNL     1      59.420  19.599  -4.681  0.00  0.00    +0.331 A 
ATOM      8  N   UNL     1      60.699  19.613  -4.213  0.00  0.00    -0.275 N 
ATOM      9  C   UNL     1      61.595  18.664  -4.589  0.00  0.00    +0.254 A 
ATOM     10  C   UNL     1      61.206  17.654  -5.463  0.00  0.00    +0.088 A 
ATOM     11  C   UNL     1      59.897  17.649  -5.937  0.00  0.00    +0.098 A 
ATOM     12  O   UNL     1      58.615  20.490  -4.291  0.00  0.00    -0.246 OA
ATOM     13  O   UNL     1      62.773  18.695  -4.145  0.00  0.00    -0.268 OA
ATOM     14  H   UNL     1      60.996  20.365  -3.549  0.00  0.00    +0.173 HD
ENDBRANCH   1   6
BRANCH   2  15
ATOM     15  O   UNL     1      57.101  17.815  -8.332  0.00  0.00    -0.385 OA
ATOM     16  H   UNL     1      57.880  17.657  -8.928  0.00  0.00    +0.210 HD
ENDBRANCH   2  15
BRANCH   3  17
ATOM     17  O   UNL     1      55.402  16.080  -7.315  0.00  0.00    -0.386 OA
ATOM     18  H   UNL     1      55.521  15.095  -7.355  0.00  0.00    +0.210 HD
ENDBRANCH   3  17
BRANCH   4  19
ATOM     19  C   UNL     1      55.091  16.847  -4.210  0.00  0.00    +0.206 C 
BRANCH  19  20
ATOM     20  O   UNL     1      54.621  15.578  -4.601  0.00  0.00    -0.284 OA
BRANCH  20  21
ATOM     21  P   UNL     1      54.058  14.768  -3.212  0.00  0.00    +0.483 P 
ATOM     22  O   UNL     1      52.844  15.505  -2.692  0.00  0.00    -0.227 OA
BRANCH  21  23
ATOM     23  O   UNL     1      53.614  13.185  -3.627  0.00  0.00    -0.302 OA
ATOM     24  H   UNL     1      52.835  13.291  -4.230  0.00  0.00    +0.222 HD
ENDBRANCH  21  23
BRANCH  21  25
ATOM     25  O   UNL     1      55.281  14.780  -2.026  0.00  0.00    -0.186 OA
BRANCH  25  26
ATOM     26  P   UNL     1      55.255  13.272  -1.238  0.00  0.00    +0.481 P 
ATOM     27  O   UNL     1      53.824  12.940  -0.880  0.00  0.00    -0.227 OA
BRANCH  26  28
ATOM     28  O   UNL     1      55.866  12.051  -2.241  0.00  0.00    -0.302 OA
ATOM     29  H   UNL     1      55.157  11.899  -2.916  0.00  0.00    +0.222 HD
ENDBRANCH  26  28
BRANCH  26  30
ATOM     30  O   UNL     1      56.168  13.348   0.185  0.00  0.00    -0.302 OA
ATOM     31  H   UNL     1      55.792  14.116   0.685  0.00  0.00    +0.222 HD
ENDBRANCH  26  30
ENDBRANCH  25  26
ENDBRANCH  21  25
ENDBRANCH  20  21
ENDBRANCH  19  20
ENDBRANCH   4  19
TORSDOF 11
ENDMDL
