MODEL 8
REMARK VINA RESULT:    -6.917      6.042      8.027
REMARK INTER + INTRA:         -11.697
REMARK INTER:                 -10.217
REMARK INTRA:                  -1.481
REMARK UNBOUND:                -1.343
REMARK  Name = UDP
REMARK  11 active torsions:
REMARK  status: ('A' for Active; 'I' for Inactive)
REMARK    1  A    between atoms: N_1  and  C_9
REMARK    2  A    between atoms: C_10  and  O_11
REMARK    3  A    between atoms: C_12  and  O_15
REMARK    4  A    between atoms: C_13  and  C_16
REMARK    5  A    between atoms: C_16  and  O_17
REMARK    6  A    between atoms: O_17  and  P_18
REMARK    7  A    between atoms: P_18  and  O_20
REMARK    8  A    between atoms: P_18  and  O_21
REMARK    9  A    between atoms: O_21  and  P_22
REMARK   10  A    between atoms: P_22  and  O_24
REMARK   11  A    between atoms: P_22  and  O_25
REMARK                            x       y       z     vdW  Elec       q    Type
REMARK                         _______ _______ _______ _____ _____    ______ ____
ROOT
ATOM      1  C   UNL     1      56.733  24.892   0.804  0.00  0.00    +0.255 C 
ATOM      2  C   UNL     1      57.715  24.382  -0.266  0.00  0.00    +0.195 C 
ATOM      3  C   UNL     1      56.994  24.651  -1.575  0.00  0.00    +0.178 C 
ATOM      4  C   UNL     1      55.938  25.672  -1.170  0.00  0.00    +0.178 C 
ATOM      5  O   UNL     1      55.585  25.419   0.170  0.00  0.00    -0.346 OA
ENDROOT
BRANCH   1   6
ATOM      6  N   UNL     1      56.354  23.811   1.737  0.00  0.00    -0.271 N 
ATOM      7  C   UNL     1      55.993  24.069   3.039  0.00  0.00    +0.331 A 
ATOM      8  N   UNL     1      55.630  23.050   3.867  0.00  0.00    -0.275 N 
ATOM      9  C   UNL     1      55.602  21.765   3.428  0.00  0.00    +0.254 A 
ATOM     10  C   UNL     1      55.944  21.476   2.112  0.00  0.00    +0.088 A 
ATOM     11  C   UNL     1      56.315  22.524   1.273  0.00  0.00    +0.098 A 
ATOM     12  O   UNL     1      55.988  25.251   3.482  0.00  0.00    -0.246 OA
ATOM     13  O   UNL     1      55.263  20.837   4.210  0.00  0.00    -0.268 OA
ATOM     14  H   UNL     1      55.364  23.260   4.856  0.00  0.00    +0.173 HD
ENDBRANCH   1   6
BRANCH   2  15
ATOM     15  O   UNL     1      58.955  25.046  -0.185  0.00  0.00    -0.385 OA
ATOM     16  H   UNL     1      59.378  25.023  -1.083  0.00  0.00    +0.210 HD
ENDBRANCH   2  15
BRANCH   3  17
ATOM     17  O   UNL     1      57.841  25.172  -2.566  0.00  0.00    -0.386 OA
ATOM     18  H   UNL     1      58.404  25.857  -2.120  0.00  0.00    +0.210 HD
ENDBRANCH   3  17
BRANCH   4  19
ATOM     19  C   UNL     1      54.696  25.596  -2.061  0.00  0.00    +0.206 C 
BRANCH  19  20
ATOM     20  O   UNL     1      53.613  26.197  -1.392  0.00  0.00    -0.284 OA
BRANCH  20  21
ATOM     21  P   UNL     1      52.583  24.962  -0.830  0.00  0.00    +0.483 P 
ATOM     22  O   UNL     1      52.990  23.665  -1.494  0.00  0.00    -0.227 OA
BRANCH  21  23
ATOM     23  O   UNL     1      52.757  24.806   0.850  0.00  0.00    -0.302 OA
ATOM     24  H   UNL     1      52.661  23.836   1.026  0.00  0.00    +0.222 HD
ENDBRANCH  21  23
BRANCH  21  25
ATOM     25  O   UNL     1      50.977  25.339  -1.256  0.00  0.00    -0.186 OA
BRANCH  25  26
ATOM     26  P   UNL     1      50.307  26.257   0.010  0.00  0.00    +0.481 P 
ATOM     27  O   UNL     1      49.030  26.899  -0.483  0.00  0.00    -0.227 OA
BRANCH  26  28
ATOM     28  O   UNL     1      49.948  25.280   1.346  0.00  0.00    -0.302 OA
ATOM     29  H   UNL     1      49.755  25.917   2.081  0.00  0.00    +0.222 HD
ENDBRANCH  26  28
BRANCH  26  30
ATOM     30  O   UNL     1      51.385  27.478   0.472  0.00  0.00    -0.302 OA
ATOM     31  H   UNL     1      50.905  28.323   0.284  0.00  0.00    +0.222 HD
ENDBRANCH  26  30
ENDBRANCH  25  26
ENDBRANCH  21  25
ENDBRANCH  20  21
ENDBRANCH  19  20
ENDBRANCH   4  19
TORSDOF 11
ENDMDL
