MODEL 2
REMARK VINA RESULT:    -7.213      6.096      7.882
REMARK INTER + INTRA:         -12.141
REMARK INTER:                 -10.643
REMARK INTRA:                  -1.498
REMARK UNBOUND:                -1.343
REMARK  Name = UDP
REMARK  11 active torsions:
REMARK  status: ('A' for Active; 'I' for Inactive)
REMARK    1  A    between atoms: N_1  and  C_9
REMARK    2  A    between atoms: C_10  and  O_11
REMARK    3  A    between atoms: C_12  and  O_15
REMARK    4  A    between atoms: C_13  and  C_16
REMARK    5  A    between atoms: C_16  and  O_17
REMARK    6  A    between atoms: O_17  and  P_18
REMARK    7  A    between atoms: P_18  and  O_20
REMARK    8  A    between atoms: P_18  and  O_21
REMARK    9  A    between atoms: O_21  and  P_22
REMARK   10  A    between atoms: P_22  and  O_24
REMARK   11  A    between atoms: P_22  and  O_25
REMARK                            x       y       z     vdW  Elec       q    Type
REMARK                         _______ _______ _______ _____ _____    ______ ____
ROOT
ATOM      1  C   UNL     1      58.111  18.566  -7.630  0.00  0.00    +0.255 C 
ATOM      2  C   UNL     1      57.856  17.076  -7.338  0.00  0.00    +0.195 C 
ATOM      3  C   UNL     1      56.452  17.056  -6.762  0.00  0.00    +0.178 C 
ATOM      4  C   UNL     1      55.891  18.402  -7.205  0.00  0.00    +0.178 C 
ATOM      5  O   UNL     1      56.963  19.312  -7.280  0.00  0.00    -0.346 OA
ENDROOT
BRANCH   1   6
ATOM      6  N   UNL     1      59.290  19.058  -6.889  0.00  0.00    -0.271 N 
ATOM      7  C   UNL     1      60.512  19.228  -7.499  0.00  0.00    +0.331 A 
ATOM      8  N   UNL     1      61.574  19.703  -6.790  0.00  0.00    -0.275 N 
ATOM      9  C   UNL     1      61.452  20.033  -5.478  0.00  0.00    +0.254 A 
ATOM     10  C   UNL     1      60.224  19.889  -4.840  0.00  0.00    +0.088 A 
ATOM     11  C   UNL     1      59.145  19.401  -5.572  0.00  0.00    +0.098 A 
ATOM     12  O   UNL     1      60.665  18.952  -8.720  0.00  0.00    -0.246 OA
ATOM     13  O   UNL     1      62.446  20.470  -4.840  0.00  0.00    -0.268 OA
ATOM     14  H   UNL     1      62.498  19.821  -7.264  0.00  0.00    +0.173 HD
ENDBRANCH   1   6
BRANCH   2  15
ATOM     15  O   UNL     1      57.973  16.296  -8.507  0.00  0.00    -0.385 OA
ATOM     16  H   UNL     1      58.558  16.782  -9.146  0.00  0.00    +0.210 HD
ENDBRANCH   2  15
BRANCH   3  17
ATOM     17  O   UNL     1      55.673  16.000  -7.262  0.00  0.00    -0.386 OA
ATOM     18  H   UNL     1      54.739  16.336  -7.299  0.00  0.00    +0.210 HD
ENDBRANCH   3  17
BRANCH   4  19
ATOM     19  C   UNL     1      54.827  18.925  -6.237  0.00  0.00    +0.206 C 
BRANCH  19  20
ATOM     20  O   UNL     1      53.838  17.938  -6.064  0.00  0.00    -0.284 OA
BRANCH  20  21
ATOM     21  P   UNL     1      52.370  18.542  -6.685  0.00  0.00    +0.483 P 
ATOM     22  O   UNL     1      51.264  18.189  -5.716  0.00  0.00    -0.227 OA
BRANCH  21  23
ATOM     23  O   UNL     1      52.471  20.228  -6.826  0.00  0.00    -0.302 OA
ATOM     24  H   UNL     1      52.689  20.546  -5.913  0.00  0.00    +0.222 HD
ENDBRANCH  21  23
BRANCH  21  25
ATOM     25  O   UNL     1      52.060  17.810  -8.192  0.00  0.00    -0.186 OA
BRANCH  25  26
ATOM     26  P   UNL     1      51.865  19.050  -9.341  0.00  0.00    +0.481 P 
ATOM     27  O   UNL     1      51.602  18.420 -10.689  0.00  0.00    -0.227 OA
BRANCH  26  28
ATOM     28  O   UNL     1      50.559  20.051  -8.938  0.00  0.00    -0.302 OA
ATOM     29  H   UNL     1      50.174  19.647  -8.119  0.00  0.00    +0.222 HD
ENDBRANCH  26  28
BRANCH  26  30
ATOM     30  O   UNL     1      53.280  19.974  -9.439  0.00  0.00    -0.302 OA
ATOM     31  H   UNL     1      53.296  20.502  -8.602  0.00  0.00    +0.222 HD
ENDBRANCH  26  30
ENDBRANCH  25  26
ENDBRANCH  21  25
ENDBRANCH  20  21
ENDBRANCH  19  20
ENDBRANCH   4  19
TORSDOF 11
ENDMDL
