MODEL 19
REMARK VINA RESULT:    -6.572      6.816      8.839
REMARK INTER + INTRA:         -11.181
REMARK INTER:                  -9.580
REMARK INTRA:                  -1.601
REMARK UNBOUND:                -1.343
REMARK  Name = UDP
REMARK  11 active torsions:
REMARK  status: ('A' for Active; 'I' for Inactive)
REMARK    1  A    between atoms: N_1  and  C_9
REMARK    2  A    between atoms: C_10  and  O_11
REMARK    3  A    between atoms: C_12  and  O_15
REMARK    4  A    between atoms: C_13  and  C_16
REMARK    5  A    between atoms: C_16  and  O_17
REMARK    6  A    between atoms: O_17  and  P_18
REMARK    7  A    between atoms: P_18  and  O_20
REMARK    8  A    between atoms: P_18  and  O_21
REMARK    9  A    between atoms: O_21  and  P_22
REMARK   10  A    between atoms: P_22  and  O_24
REMARK   11  A    between atoms: P_22  and  O_25
REMARK                            x       y       z     vdW  Elec       q    Type
REMARK                         _______ _______ _______ _____ _____    ______ ____
ROOT
ATOM      1  C   UNL     1      55.186  25.601  -0.007  0.00  0.00    +0.255 C 
ATOM      2  C   UNL     1      55.884  24.905  -1.189  0.00  0.00    +0.195 C 
ATOM      3  C   UNL     1      54.779  24.749  -2.219  0.00  0.00    +0.178 C 
ATOM      4  C   UNL     1      53.734  25.749  -1.740  0.00  0.00    +0.178 C 
ATOM      5  O   UNL     1      53.833  25.839  -0.339  0.00  0.00    -0.346 OA
ENDROOT
BRANCH   1   6
ATOM      6  N   UNL     1      55.279  24.784   1.220  0.00  0.00    -0.271 N 
ATOM      7  C   UNL     1      56.283  24.970   2.142  0.00  0.00    +0.331 A 
ATOM      8  N   UNL     1      56.327  24.212   3.273  0.00  0.00    -0.275 N 
ATOM      9  C   UNL     1      55.381  23.271   3.525  0.00  0.00    +0.254 A 
ATOM     10  C   UNL     1      54.344  23.073   2.621  0.00  0.00    +0.088 A 
ATOM     11  C   UNL     1      54.308  23.851   1.466  0.00  0.00    +0.098 A 
ATOM     12  O   UNL     1      57.172  25.846   1.957  0.00  0.00    -0.246 OA
ATOM     13  O   UNL     1      55.440  22.580   4.577  0.00  0.00    -0.268 OA
ATOM     14  H   UNL     1      57.100  24.360   3.963  0.00  0.00    +0.173 HD
ENDBRANCH   1   6
BRANCH   2  15
ATOM     15  O   UNL     1      56.968  25.668  -1.669  0.00  0.00    -0.385 OA
ATOM     16  H   UNL     1      56.880  25.742  -2.656  0.00  0.00    +0.210 HD
ENDBRANCH   2  15
BRANCH   3  17
ATOM     17  O   UNL     1      55.203  25.052  -3.523  0.00  0.00    -0.386 OA
ATOM     18  H   UNL     1      56.024  24.515  -3.681  0.00  0.00    +0.210 HD
ENDBRANCH   3  17
BRANCH   4  19
ATOM     19  C   UNL     1      52.316  25.331  -2.139  0.00  0.00    +0.206 C 
BRANCH  19  20
ATOM     20  O   UNL     1      51.404  25.846  -1.199  0.00  0.00    -0.284 OA
BRANCH  20  21
ATOM     21  P   UNL     1      50.441  24.560  -0.631  0.00  0.00    +0.483 P 
ATOM     22  O   UNL     1      49.352  24.298  -1.648  0.00  0.00    -0.227 OA
BRANCH  21  23
ATOM     23  O   UNL     1      51.399  23.171  -0.468  0.00  0.00    -0.302 OA
ATOM     24  H   UNL     1      51.147  22.792   0.412  0.00  0.00    +0.222 HD
ENDBRANCH  21  23
BRANCH  21  25
ATOM     25  O   UNL     1      49.736  25.007   0.854  0.00  0.00    -0.186 OA
BRANCH  25  26
ATOM     26  P   UNL     1      49.312  26.652   0.754  0.00  0.00    +0.481 P 
ATOM     27  O   UNL     1      48.441  26.999   1.939  0.00  0.00    -0.227 OA
BRANCH  26  28
ATOM     28  O   UNL     1      50.690  27.637   0.779  0.00  0.00    -0.302 OA
ATOM     29  H   UNL     1      51.355  27.129   1.310  0.00  0.00    +0.222 HD
ENDBRANCH  26  28
BRANCH  26  30
ATOM     30  O   UNL     1      48.436  26.937  -0.667  0.00  0.00    -0.302 OA
ATOM     31  H   UNL     1      47.656  27.474  -0.379  0.00  0.00    +0.222 HD
ENDBRANCH  26  30
ENDBRANCH  25  26
ENDBRANCH  21  25
ENDBRANCH  20  21
ENDBRANCH  19  20
ENDBRANCH   4  19
TORSDOF 11
ENDMDL
