MODEL 1
REMARK VINA RESULT:    -7.278      0.000      0.000
REMARK INTER + INTRA:         -12.238
REMARK INTER:                 -10.894
REMARK INTRA:                  -1.343
REMARK UNBOUND:                -1.343
REMARK  Name = UDP
REMARK  11 active torsions:
REMARK  status: ('A' for Active; 'I' for Inactive)
REMARK    1  A    between atoms: N_1  and  C_9
REMARK    2  A    between atoms: C_10  and  O_11
REMARK    3  A    between atoms: C_12  and  O_15
REMARK    4  A    between atoms: C_13  and  C_16
REMARK    5  A    between atoms: C_16  and  O_17
REMARK    6  A    between atoms: O_17  and  P_18
REMARK    7  A    between atoms: P_18  and  O_20
REMARK    8  A    between atoms: P_18  and  O_21
REMARK    9  A    between atoms: O_21  and  P_22
REMARK   10  A    between atoms: P_22  and  O_24
REMARK   11  A    between atoms: P_22  and  O_25
REMARK                            x       y       z     vdW  Elec       q    Type
REMARK                         _______ _______ _______ _____ _____    ______ ____
ROOT
ATOM      1  C   UNL     1      58.213  19.028  -3.729  0.00  0.00    +0.255 C 
ATOM      2  C   UNL     1      58.337  18.711  -2.228  0.00  0.00    +0.195 C 
ATOM      3  C   UNL     1      58.172  20.064  -1.560  0.00  0.00    +0.178 C 
ATOM      4  C   UNL     1      57.525  20.901  -2.656  0.00  0.00    +0.178 C 
ATOM      5  O   UNL     1      57.977  20.411  -3.896  0.00  0.00    -0.346 OA
ENDROOT
BRANCH   1   6
ATOM      6  N   UNL     1      59.431  18.622  -4.460  0.00  0.00    -0.271 N 
ATOM      7  C   UNL     1      59.493  17.446  -5.171  0.00  0.00    +0.331 A 
ATOM      8  N   UNL     1      60.626  17.112  -5.850  0.00  0.00    -0.275 N 
ATOM      9  C   UNL     1      61.710  17.931  -5.855  0.00  0.00    +0.254 A 
ATOM     10  C   UNL     1      61.669  19.134  -5.159  0.00  0.00    +0.088 A 
ATOM     11  C   UNL     1      60.508  19.467  -4.467  0.00  0.00    +0.098 A 
ATOM     12  O   UNL     1      58.503  16.665  -5.210  0.00  0.00    -0.246 OA
ATOM     13  O   UNL     1      62.748  17.603  -6.489  0.00  0.00    -0.268 OA
ATOM     14  H   UNL     1      60.661  16.212  -6.382  0.00  0.00    +0.173 HD
ENDBRANCH   1   6
BRANCH   2  15
ATOM     15  O   UNL     1      57.361  17.781  -1.816  0.00  0.00    -0.385 OA
ATOM     16  H   UNL     1      57.689  17.334  -0.991  0.00  0.00    +0.210 HD
ENDBRANCH   2  15
BRANCH   3  17
ATOM     17  O   UNL     1      57.354  20.013  -0.419  0.00  0.00    -0.386 OA
ATOM     18  H   UNL     1      57.188  19.050  -0.239  0.00  0.00    +0.210 HD
ENDBRANCH   3  17
BRANCH   4  19
ATOM     19  C   UNL     1      57.871  22.386  -2.522  0.00  0.00    +0.206 C 
BRANCH  19  20
ATOM     20  O   UNL     1      58.310  22.639  -1.208  0.00  0.00    -0.284 OA
BRANCH  20  21
ATOM     21  P   UNL     1      57.842  24.223  -0.787  0.00  0.00    +0.483 P 
ATOM     22  O   UNL     1      58.973  24.860  -0.009  0.00  0.00    -0.227 OA
BRANCH  21  23
ATOM     23  O   UNL     1      57.562  25.120  -2.198  0.00  0.00    -0.302 OA
ATOM     24  H   UNL     1      56.712  25.600  -2.028  0.00  0.00    +0.222 HD
ENDBRANCH  21  23
BRANCH  21  25
ATOM     25  O   UNL     1      56.449  24.150   0.191  0.00  0.00    -0.186 OA
BRANCH  25  26
ATOM     26  P   UNL     1      56.096  25.732   0.708  0.00  0.00    +0.481 P 
ATOM     27  O   UNL     1      56.331  25.816   2.199  0.00  0.00    -0.227 OA
BRANCH  26  28
ATOM     28  O   UNL     1      57.089  26.862  -0.069  0.00  0.00    -0.302 OA
ATOM     29  H   UNL     1      57.499  27.387   0.666  0.00  0.00    +0.222 HD
ENDBRANCH  26  28
BRANCH  26  30
ATOM     30  O   UNL     1      54.471  26.093   0.394  0.00  0.00    -0.302 OA
ATOM     31  H   UNL     1      53.970  25.302   0.716  0.00  0.00    +0.222 HD
ENDBRANCH  26  30
ENDBRANCH  25  26
ENDBRANCH  21  25
ENDBRANCH  20  21
ENDBRANCH  19  20
ENDBRANCH   4  19
TORSDOF 11
ENDMDL
