MODEL 20
REMARK VINA RESULT:    -6.483      6.309      9.484
REMARK INTER + INTRA:         -11.048
REMARK INTER:                  -9.200
REMARK INTRA:                  -1.848
REMARK UNBOUND:                -1.343
REMARK  Name = UDP
REMARK  11 active torsions:
REMARK  status: ('A' for Active; 'I' for Inactive)
REMARK    1  A    between atoms: N_1  and  C_9
REMARK    2  A    between atoms: C_10  and  O_11
REMARK    3  A    between atoms: C_12  and  O_15
REMARK    4  A    between atoms: C_13  and  C_16
REMARK    5  A    between atoms: C_16  and  O_17
REMARK    6  A    between atoms: O_17  and  P_18
REMARK    7  A    between atoms: P_18  and  O_20
REMARK    8  A    between atoms: P_18  and  O_21
REMARK    9  A    between atoms: O_21  and  P_22
REMARK   10  A    between atoms: P_22  and  O_24
REMARK   11  A    between atoms: P_22  and  O_25
REMARK                            x       y       z     vdW  Elec       q    Type
REMARK                         _______ _______ _______ _____ _____    ______ ____
ROOT
ATOM      1  C   UNL     1      54.896  13.454  -1.551  0.00  0.00    +0.255 C 
ATOM      2  C   UNL     1      53.723  13.918  -2.433  0.00  0.00    +0.195 C 
ATOM      3  C   UNL     1      54.261  15.158  -3.123  0.00  0.00    +0.178 C 
ATOM      4  C   UNL     1      55.767  15.013  -2.945  0.00  0.00    +0.178 C 
ATOM      5  O   UNL     1      55.993  14.324  -1.738  0.00  0.00    -0.346 OA
ENDROOT
BRANCH   1   6
ATOM      6  N   UNL     1      54.507  13.417  -0.125  0.00  0.00    -0.271 N 
ATOM      7  C   UNL     1      54.252  12.233   0.527  0.00  0.00    +0.331 A 
ATOM      8  N   UNL     1      53.915  12.235   1.847  0.00  0.00    -0.275 N 
ATOM      9  C   UNL     1      53.836  13.394   2.551  0.00  0.00    +0.254 A 
ATOM     10  C   UNL     1      54.105  14.604   1.922  0.00  0.00    +0.088 A 
ATOM     11  C   UNL     1      54.448  14.593   0.572  0.00  0.00    +0.098 A 
ATOM     12  O   UNL     1      54.333  11.132  -0.083  0.00  0.00    -0.246 OA
ATOM     13  O   UNL     1      53.522  13.374   3.771  0.00  0.00    -0.268 OA
ATOM     14  H   UNL     1      53.718  11.328   2.330  0.00  0.00    +0.173 HD
ENDBRANCH   1   6
BRANCH   2  15
ATOM     15  O   UNL     1      53.337  12.914  -3.344  0.00  0.00    -0.385 OA
ATOM     16  H   UNL     1      52.395  13.085  -3.611  0.00  0.00    +0.210 HD
ENDBRANCH   2  15
BRANCH   3  17
ATOM     17  O   UNL     1      53.920  15.214  -4.485  0.00  0.00    -0.386 OA
ATOM     18  H   UNL     1      53.595  14.308  -4.728  0.00  0.00    +0.210 HD
ENDBRANCH   3  17
BRANCH   4  19
ATOM     19  C   UNL     1      56.473  16.371  -2.913  0.00  0.00    +0.206 C 
BRANCH  19  20
ATOM     20  O   UNL     1      55.893  17.213  -3.881  0.00  0.00    -0.284 OA
BRANCH  20  21
ATOM     21  P   UNL     1      57.148  17.961  -4.757  0.00  0.00    +0.483 P 
ATOM     22  O   UNL     1      56.547  19.066  -5.598  0.00  0.00    -0.227 OA
BRANCH  21  23
ATOM     23  O   UNL     1      58.267  18.632  -3.673  0.00  0.00    -0.302 OA
ATOM     24  H   UNL     1      58.639  17.857  -3.181  0.00  0.00    +0.222 HD
ENDBRANCH  21  23
BRANCH  21  25
ATOM     25  O   UNL     1      57.882  16.808  -5.773  0.00  0.00    -0.186 OA
BRANCH  25  26
ATOM     26  P   UNL     1      56.861  16.574  -7.114  0.00  0.00    +0.481 P 
ATOM     27  O   UNL     1      57.325  15.346  -7.864  0.00  0.00    -0.227 OA
BRANCH  26  28
ATOM     28  O   UNL     1      55.257  16.343  -6.623  0.00  0.00    -0.302 OA
ATOM     29  H   UNL     1      55.160  16.894  -5.805  0.00  0.00    +0.222 HD
ENDBRANCH  26  28
BRANCH  26  30
ATOM     30  O   UNL     1      56.952  17.910  -8.149  0.00  0.00    -0.302 OA
ATOM     31  H   UNL     1      56.226  18.513  -7.848  0.00  0.00    +0.222 HD
ENDBRANCH  26  30
ENDBRANCH  25  26
ENDBRANCH  21  25
ENDBRANCH  20  21
ENDBRANCH  19  20
ENDBRANCH   4  19
TORSDOF 11
ENDMDL
