MODEL 12
REMARK VINA RESULT:    -6.767      5.518      7.309
REMARK INTER + INTRA:         -11.473
REMARK INTER:                  -9.871
REMARK INTRA:                  -1.602
REMARK UNBOUND:                -1.343
REMARK  Name = UDP
REMARK  11 active torsions:
REMARK  status: ('A' for Active; 'I' for Inactive)
REMARK    1  A    between atoms: N_1  and  C_9
REMARK    2  A    between atoms: C_10  and  O_11
REMARK    3  A    between atoms: C_12  and  O_15
REMARK    4  A    between atoms: C_13  and  C_16
REMARK    5  A    between atoms: C_16  and  O_17
REMARK    6  A    between atoms: O_17  and  P_18
REMARK    7  A    between atoms: P_18  and  O_20
REMARK    8  A    between atoms: P_18  and  O_21
REMARK    9  A    between atoms: O_21  and  P_22
REMARK   10  A    between atoms: P_22  and  O_24
REMARK   11  A    between atoms: P_22  and  O_25
REMARK                            x       y       z     vdW  Elec       q    Type
REMARK                         _______ _______ _______ _____ _____    ______ ____
ROOT
ATOM      1  C   UNL     1      57.167  17.968  -6.224  0.00  0.00    +0.255 C 
ATOM      2  C   UNL     1      56.548  16.559  -6.269  0.00  0.00    +0.195 C 
ATOM      3  C   UNL     1      55.831  16.438  -4.936  0.00  0.00    +0.178 C 
ATOM      4  C   UNL     1      55.712  17.889  -4.488  0.00  0.00    +0.178 C 
ATOM      5  O   UNL     1      56.818  18.592  -5.005  0.00  0.00    -0.346 OA
ENDROOT
BRANCH   1   6
ATOM      6  N   UNL     1      58.636  17.907  -6.368  0.00  0.00    -0.271 N 
ATOM      7  C   UNL     1      59.273  18.350  -7.504  0.00  0.00    +0.331 A 
ATOM      8  N   UNL     1      60.631  18.298  -7.596  0.00  0.00    -0.275 N 
ATOM      9  C   UNL     1      61.387  17.825  -6.571  0.00  0.00    +0.254 A 
ATOM     10  C   UNL     1      60.772  17.388  -5.403  0.00  0.00    +0.088 A 
ATOM     11  C   UNL     1      59.383  17.443  -5.319  0.00  0.00    +0.098 A 
ATOM     12  O   UNL     1      58.611  18.814  -8.473  0.00  0.00    -0.246 OA
ATOM     13  O   UNL     1      62.642  17.785  -6.676  0.00  0.00    -0.268 OA
ATOM     14  H   UNL     1      61.102  18.632  -8.469  0.00  0.00    +0.173 HD
ENDBRANCH   1   6
BRANCH   2  15
ATOM     15  O   UNL     1      55.677  16.415  -7.368  0.00  0.00    -0.385 OA
ATOM     16  H   UNL     1      55.216  15.540  -7.284  0.00  0.00    +0.210 HD
ENDBRANCH   2  15
BRANCH   3  17
ATOM     17  O   UNL     1      54.563  15.844  -5.052  0.00  0.00    -0.386 OA
ATOM     18  H   UNL     1      54.708  14.864  -4.986  0.00  0.00    +0.210 HD
ENDBRANCH   3  17
BRANCH   4  19
ATOM     19  C   UNL     1      55.677  18.016  -2.963  0.00  0.00    +0.206 C 
BRANCH  19  20
ATOM     20  O   UNL     1      54.536  17.352  -2.473  0.00  0.00    -0.284 OA
BRANCH  20  21
ATOM     21  P   UNL     1      55.050  16.139  -1.392  0.00  0.00    +0.483 P 
ATOM     22  O   UNL     1      56.264  16.650  -0.647  0.00  0.00    -0.227 OA
BRANCH  21  23
ATOM     23  O   UNL     1      53.810  15.816  -0.281  0.00  0.00    -0.302 OA
ATOM     24  H   UNL     1      54.258  15.809   0.603  0.00  0.00    +0.222 HD
ENDBRANCH  21  23
BRANCH  21  25
ATOM     25  O   UNL     1      55.470  14.746  -2.277  0.00  0.00    -0.186 OA
BRANCH  25  26
ATOM     26  P   UNL     1      55.352  13.411  -1.229  0.00  0.00    +0.481 P 
ATOM     27  O   UNL     1      53.897  13.018  -1.110  0.00  0.00    -0.227 OA
BRANCH  26  28
ATOM     28  O   UNL     1      56.229  12.091  -1.827  0.00  0.00    -0.302 OA
ATOM     29  H   UNL     1      57.140  12.446  -1.993  0.00  0.00    +0.222 HD
ENDBRANCH  26  28
BRANCH  26  30
ATOM     30  O   UNL     1      55.930  13.829   0.306  0.00  0.00    -0.302 OA
ATOM     31  H   UNL     1      56.795  13.354   0.388  0.00  0.00    +0.222 HD
ENDBRANCH  26  30
ENDBRANCH  25  26
ENDBRANCH  21  25
ENDBRANCH  20  21
ENDBRANCH  19  20
ENDBRANCH   4  19
TORSDOF 11
ENDMDL
