MODEL 6
REMARK VINA RESULT:    -7.030      6.276      9.275
REMARK INTER + INTRA:         -11.867
REMARK INTER:                  -9.810
REMARK INTRA:                  -2.057
REMARK UNBOUND:                -1.343
REMARK  Name = UDP
REMARK  11 active torsions:
REMARK  status: ('A' for Active; 'I' for Inactive)
REMARK    1  A    between atoms: N_1  and  C_9
REMARK    2  A    between atoms: C_10  and  O_11
REMARK    3  A    between atoms: C_12  and  O_15
REMARK    4  A    between atoms: C_13  and  C_16
REMARK    5  A    between atoms: C_16  and  O_17
REMARK    6  A    between atoms: O_17  and  P_18
REMARK    7  A    between atoms: P_18  and  O_20
REMARK    8  A    between atoms: P_18  and  O_21
REMARK    9  A    between atoms: O_21  and  P_22
REMARK   10  A    between atoms: P_22  and  O_24
REMARK   11  A    between atoms: P_22  and  O_25
REMARK                            x       y       z     vdW  Elec       q    Type
REMARK                         _______ _______ _______ _____ _____    ______ ____
ROOT
ATOM      1  C   UNL     1      51.536  25.799  -1.467  0.00  0.00    +0.255 C 
ATOM      2  C   UNL     1      52.170  25.872  -0.067  0.00  0.00    +0.195 C 
ATOM      3  C   UNL     1      53.588  25.374  -0.286  0.00  0.00    +0.178 C 
ATOM      4  C   UNL     1      53.761  25.515  -1.794  0.00  0.00    +0.178 C 
ATOM      5  O   UNL     1      52.499  25.333  -2.391  0.00  0.00    -0.346 OA
ENDROOT
BRANCH   1   6
ATOM      6  N   UNL     1      50.352  24.916  -1.469  0.00  0.00    -0.271 N 
ATOM      7  C   UNL     1      49.149  25.314  -0.934  0.00  0.00    +0.331 A 
ATOM      8  N   UNL     1      48.071  24.481  -0.970  0.00  0.00    -0.275 N 
ATOM      9  C   UNL     1      48.152  23.252  -1.543  0.00  0.00    +0.254 A 
ATOM     10  C   UNL     1      49.350  22.830  -2.109  0.00  0.00    +0.088 A 
ATOM     11  C   UNL     1      50.447  23.687  -2.066  0.00  0.00    +0.098 A 
ATOM     12  O   UNL     1      49.025  26.454  -0.408  0.00  0.00    -0.246 OA
ATOM     13  O   UNL     1      47.143  22.497  -1.566  0.00  0.00    -0.268 OA
ATOM     14  H   UNL     1      47.164  24.794  -0.554  0.00  0.00    +0.173 HD
ENDBRANCH   1   6
BRANCH   2  15
ATOM     15  O   UNL     1      52.130  27.184   0.448  0.00  0.00    -0.385 OA
ATOM     16  H   UNL     1      52.013  27.811  -0.313  0.00  0.00    +0.210 HD
ENDBRANCH   2  15
BRANCH   3  17
ATOM     17  O   UNL     1      54.546  26.137   0.402  0.00  0.00    -0.386 OA
ATOM     18  H   UNL     1      54.123  26.406   1.259  0.00  0.00    +0.210 HD
ENDBRANCH   3  17
BRANCH   4  19
ATOM     19  C   UNL     1      54.757  24.496  -2.353  0.00  0.00    +0.206 C 
BRANCH  19  20
ATOM     20  O   UNL     1      55.659  24.130  -1.336  0.00  0.00    -0.284 OA
BRANCH  20  21
ATOM     21  P   UNL     1      57.232  24.139  -1.991  0.00  0.00    +0.483 P 
ATOM     22  O   UNL     1      57.386  22.921  -2.875  0.00  0.00    -0.227 OA
BRANCH  21  23
ATOM     23  O   UNL     1      57.442  25.537  -2.927  0.00  0.00    -0.302 OA
ATOM     24  H   UNL     1      56.683  25.532  -3.563  0.00  0.00    +0.222 HD
ENDBRANCH  21  23
BRANCH  21  25
ATOM     25  O   UNL     1      58.364  24.066  -0.720  0.00  0.00    -0.186 OA
BRANCH  25  26
ATOM     26  P   UNL     1      57.882  25.183   0.469  0.00  0.00    +0.481 P 
ATOM     27  O   UNL     1      59.098  25.588   1.271  0.00  0.00    -0.227 OA
BRANCH  26  28
ATOM     28  O   UNL     1      57.204  26.565  -0.235  0.00  0.00    -0.302 OA
ATOM     29  H   UNL     1      56.285  26.614   0.136  0.00  0.00    +0.222 HD
ENDBRANCH  26  28
BRANCH  26  30
ATOM     30  O   UNL     1      56.757  24.466   1.512  0.00  0.00    -0.302 OA
ATOM     31  H   UNL     1      56.634  25.124   2.242  0.00  0.00    +0.222 HD
ENDBRANCH  26  30
ENDBRANCH  25  26
ENDBRANCH  21  25
ENDBRANCH  20  21
ENDBRANCH  19  20
ENDBRANCH   4  19
TORSDOF 11
ENDMDL
