MODEL 4
REMARK VINA RESULT:    -7.141      5.923      7.968
REMARK INTER + INTRA:         -12.033
REMARK INTER:                 -10.813
REMARK INTRA:                  -1.220
REMARK UNBOUND:                -1.343
REMARK  Name = UDP
REMARK  11 active torsions:
REMARK  status: ('A' for Active; 'I' for Inactive)
REMARK    1  A    between atoms: N_1  and  C_9
REMARK    2  A    between atoms: C_10  and  O_11
REMARK    3  A    between atoms: C_12  and  O_15
REMARK    4  A    between atoms: C_13  and  C_16
REMARK    5  A    between atoms: C_16  and  O_17
REMARK    6  A    between atoms: O_17  and  P_18
REMARK    7  A    between atoms: P_18  and  O_20
REMARK    8  A    between atoms: P_18  and  O_21
REMARK    9  A    between atoms: O_21  and  P_22
REMARK   10  A    between atoms: P_22  and  O_24
REMARK   11  A    between atoms: P_22  and  O_25
REMARK                            x       y       z     vdW  Elec       q    Type
REMARK                         _______ _______ _______ _____ _____    ______ ____
ROOT
ATOM      1  C   UNL     1      58.144  18.600  -7.465  0.00  0.00    +0.255 C 
ATOM      2  C   UNL     1      57.901  17.092  -7.280  0.00  0.00    +0.195 C 
ATOM      3  C   UNL     1      56.479  17.018  -6.755  0.00  0.00    +0.178 C 
ATOM      4  C   UNL     1      55.914  18.383  -7.128  0.00  0.00    +0.178 C 
ATOM      5  O   UNL     1      56.975  19.308  -7.106  0.00  0.00    -0.346 OA
ENDROOT
BRANCH   1   6
ATOM      6  N   UNL     1      59.291  19.057  -6.652  0.00  0.00    -0.271 N 
ATOM      7  C   UNL     1      60.547  19.211  -7.192  0.00  0.00    +0.331 A 
ATOM      8  N   UNL     1      61.578  19.653  -6.419  0.00  0.00    -0.275 N 
ATOM      9  C   UNL     1      61.391  19.965  -5.110  0.00  0.00    +0.254 A 
ATOM     10  C   UNL     1      60.128  19.836  -4.542  0.00  0.00    +0.088 A 
ATOM     11  C   UNL     1      59.081  19.382  -5.340  0.00  0.00    +0.098 A 
ATOM     12  O   UNL     1      60.761  18.951  -8.408  0.00  0.00    -0.246 OA
ATOM     13  O   UNL     1      62.358  20.372  -4.412  0.00  0.00    -0.268 OA
ATOM     14  H   UNL     1      62.529  19.760  -6.840  0.00  0.00    +0.173 HD
ENDBRANCH   1   6
BRANCH   2  15
ATOM     15  O   UNL     1      58.069  16.392  -8.492  0.00  0.00    -0.385 OA
ATOM     16  H   UNL     1      58.790  15.721  -8.365  0.00  0.00    +0.210 HD
ENDBRANCH   2  15
BRANCH   3  17
ATOM     17  O   UNL     1      55.732  15.987  -7.349  0.00  0.00    -0.386 OA
ATOM     18  H   UNL     1      56.277  15.649  -8.107  0.00  0.00    +0.210 HD
ENDBRANCH   3  17
BRANCH   4  19
ATOM     19  C   UNL     1      54.811  18.828  -6.164  0.00  0.00    +0.206 C 
BRANCH  19  20
ATOM     20  O   UNL     1      54.233  20.018  -6.647  0.00  0.00    -0.284 OA
BRANCH  20  21
ATOM     21  P   UNL     1      52.962  19.602  -7.703  0.00  0.00    +0.483 P 
ATOM     22  O   UNL     1      51.726  20.368  -7.283  0.00  0.00    -0.227 OA
BRANCH  21  23
ATOM     23  O   UNL     1      53.379  20.044  -9.286  0.00  0.00    -0.302 OA
ATOM     24  H   UNL     1      53.206  21.018  -9.331  0.00  0.00    +0.222 HD
ENDBRANCH  21  23
BRANCH  21  25
ATOM     25  O   UNL     1      52.663  17.930  -7.583  0.00  0.00    -0.186 OA
BRANCH  25  26
ATOM     26  P   UNL     1      51.245  17.592  -8.461  0.00  0.00    +0.481 P 
ATOM     27  O   UNL     1      50.103  17.424  -7.486  0.00  0.00    -0.227 OA
BRANCH  26  28
ATOM     28  O   UNL     1      50.875  18.854  -9.527  0.00  0.00    -0.302 OA
ATOM     29  H   UNL     1      49.924  19.067  -9.347  0.00  0.00    +0.222 HD
ENDBRANCH  26  28
BRANCH  26  30
ATOM     30  O   UNL     1      51.434  16.151  -9.330  0.00  0.00    -0.302 OA
ATOM     31  H   UNL     1      51.290  16.406 -10.275  0.00  0.00    +0.222 HD
ENDBRANCH  26  30
ENDBRANCH  25  26
ENDBRANCH  21  25
ENDBRANCH  20  21
ENDBRANCH  19  20
ENDBRANCH   4  19
TORSDOF 11
ENDMDL
