MODEL 9
REMARK VINA RESULT:    -6.897      4.448      6.182
REMARK INTER + INTRA:         -11.667
REMARK INTER:                  -9.829
REMARK INTRA:                  -1.838
REMARK UNBOUND:                -1.343
REMARK  Name = UDP
REMARK  11 active torsions:
REMARK  status: ('A' for Active; 'I' for Inactive)
REMARK    1  A    between atoms: N_1  and  C_9
REMARK    2  A    between atoms: C_10  and  O_11
REMARK    3  A    between atoms: C_12  and  O_15
REMARK    4  A    between atoms: C_13  and  C_16
REMARK    5  A    between atoms: C_16  and  O_17
REMARK    6  A    between atoms: O_17  and  P_18
REMARK    7  A    between atoms: P_18  and  O_20
REMARK    8  A    between atoms: P_18  and  O_21
REMARK    9  A    between atoms: O_21  and  P_22
REMARK   10  A    between atoms: P_22  and  O_24
REMARK   11  A    between atoms: P_22  and  O_25
REMARK                            x       y       z     vdW  Elec       q    Type
REMARK                         _______ _______ _______ _____ _____    ______ ____
ROOT
ATOM      1  C   UNL     1      58.356  18.543  -7.333  0.00  0.00    +0.255 C 
ATOM      2  C   UNL     1      57.869  17.095  -7.141  0.00  0.00    +0.195 C 
ATOM      3  C   UNL     1      56.417  17.255  -6.730  0.00  0.00    +0.178 C 
ATOM      4  C   UNL     1      56.100  18.679  -7.170  0.00  0.00    +0.178 C 
ATOM      5  O   UNL     1      57.287  19.431  -7.081  0.00  0.00    -0.346 OA
ENDROOT
BRANCH   1   6
ATOM      6  N   UNL     1      59.495  18.843  -6.440  0.00  0.00    -0.271 N 
ATOM      7  C   UNL     1      60.736  18.280  -6.633  0.00  0.00    +0.331 A 
ATOM      8  N   UNL     1      61.769  18.594  -5.803  0.00  0.00    -0.275 N 
ATOM      9  C   UNL     1      61.607  19.473  -4.780  0.00  0.00    +0.254 A 
ATOM     10  C   UNL     1      60.368  20.071  -4.572  0.00  0.00    +0.088 A 
ATOM     11  C   UNL     1      59.318  19.743  -5.425  0.00  0.00    +0.098 A 
ATOM     12  O   UNL     1      60.936  17.473  -7.582  0.00  0.00    -0.246 OA
ATOM     13  O   UNL     1      62.575  19.750  -4.023  0.00  0.00    -0.268 OA
ATOM     14  H   UNL     1      62.706  18.155  -5.957  0.00  0.00    +0.173 HD
ENDBRANCH   1   6
BRANCH   2  15
ATOM     15  O   UNL     1      58.017  16.342  -8.324  0.00  0.00    -0.385 OA
ATOM     16  H   UNL     1      58.046  15.381  -8.077  0.00  0.00    +0.210 HD
ENDBRANCH   2  15
BRANCH   3  17
ATOM     17  O   UNL     1      55.567  16.333  -7.363  0.00  0.00    -0.386 OA
ATOM     18  H   UNL     1      56.099  15.917  -8.090  0.00  0.00    +0.210 HD
ENDBRANCH   3  17
BRANCH   4  19
ATOM     19  C   UNL     1      55.010  19.316  -6.305  0.00  0.00    +0.206 C 
BRANCH  19  20
ATOM     20  O   UNL     1      54.767  18.491  -5.190  0.00  0.00    -0.284 OA
BRANCH  20  21
ATOM     21  P   UNL     1      55.464  19.228  -3.821  0.00  0.00    +0.483 P 
ATOM     22  O   UNL     1      55.601  20.709  -4.096  0.00  0.00    -0.227 OA
BRANCH  21  23
ATOM     23  O   UNL     1      54.448  19.001  -2.483  0.00  0.00    -0.302 OA
ATOM     24  H   UNL     1      53.537  19.197  -2.820  0.00  0.00    +0.222 HD
ENDBRANCH  21  23
BRANCH  21  25
ATOM     25  O   UNL     1      57.006  18.555  -3.551  0.00  0.00    -0.186 OA
BRANCH  25  26
ATOM     26  P   UNL     1      56.787  17.020  -2.851  0.00  0.00    +0.481 P 
ATOM     27  O   UNL     1      56.693  17.183  -1.351  0.00  0.00    -0.227 OA
BRANCH  26  28
ATOM     28  O   UNL     1      55.364  16.292  -3.413  0.00  0.00    -0.302 OA
ATOM     29  H   UNL     1      54.955  15.882  -2.609  0.00  0.00    +0.222 HD
ENDBRANCH  26  28
BRANCH  26  30
ATOM     30  O   UNL     1      58.112  16.028  -3.208  0.00  0.00    -0.302 OA
ATOM     31  H   UNL     1      58.162  15.392  -2.450  0.00  0.00    +0.222 HD
ENDBRANCH  26  30
ENDBRANCH  25  26
ENDBRANCH  21  25
ENDBRANCH  20  21
ENDBRANCH  19  20
ENDBRANCH   4  19
TORSDOF 11
ENDMDL
