MODEL 13
REMARK VINA RESULT:    -6.755      3.989      7.311
REMARK INTER + INTRA:         -11.455
REMARK INTER:                  -9.593
REMARK INTRA:                  -1.862
REMARK UNBOUND:                -1.343
REMARK  Name = UDP
REMARK  11 active torsions:
REMARK  status: ('A' for Active; 'I' for Inactive)
REMARK    1  A    between atoms: N_1  and  C_9
REMARK    2  A    between atoms: C_10  and  O_11
REMARK    3  A    between atoms: C_12  and  O_15
REMARK    4  A    between atoms: C_13  and  C_16
REMARK    5  A    between atoms: C_16  and  O_17
REMARK    6  A    between atoms: O_17  and  P_18
REMARK    7  A    between atoms: P_18  and  O_20
REMARK    8  A    between atoms: P_18  and  O_21
REMARK    9  A    between atoms: O_21  and  P_22
REMARK   10  A    between atoms: P_22  and  O_24
REMARK   11  A    between atoms: P_22  and  O_25
REMARK                            x       y       z     vdW  Elec       q    Type
REMARK                         _______ _______ _______ _____ _____    ______ ____
ROOT
ATOM      1  C   UNL     1      56.789  16.971  -4.227  0.00  0.00    +0.255 C 
ATOM      2  C   UNL     1      55.517  16.929  -5.093  0.00  0.00    +0.195 C 
ATOM      3  C   UNL     1      56.040  17.096  -6.508  0.00  0.00    +0.178 C 
ATOM      4  C   UNL     1      57.517  16.752  -6.362  0.00  0.00    +0.178 C 
ATOM      5  O   UNL     1      57.918  17.120  -5.064  0.00  0.00    -0.346 OA
ENDROOT
BRANCH   1   6
ATOM      6  N   UNL     1      56.728  18.073  -3.245  0.00  0.00    -0.271 N 
ATOM      7  C   UNL     1      56.492  17.842  -1.909  0.00  0.00    +0.331 A 
ATOM      8  N   UNL     1      56.461  18.879  -1.027  0.00  0.00    -0.275 N 
ATOM      9  C   UNL     1      56.675  20.157  -1.437  0.00  0.00    +0.254 A 
ATOM     10  C   UNL     1      56.933  20.418  -2.778  0.00  0.00    +0.088 A 
ATOM     11  C   UNL     1      56.961  19.351  -3.673  0.00  0.00    +0.098 A 
ATOM     12  O   UNL     1      56.307  16.669  -1.482  0.00  0.00    -0.246 OA
ATOM     13  O   UNL     1      56.642  21.102  -0.605  0.00  0.00    -0.268 OA
ATOM     14  H   UNL     1      56.275  18.690  -0.015  0.00  0.00    +0.173 HD
ENDBRANCH   1   6
BRANCH   2  15
ATOM     15  O   UNL     1      54.813  15.721  -4.915  0.00  0.00    -0.385 OA
ATOM     16  H   UNL     1      53.890  15.942  -4.621  0.00  0.00    +0.210 HD
ENDBRANCH   2  15
BRANCH   3  17
ATOM     17  O   UNL     1      55.413  16.237  -7.426  0.00  0.00    -0.386 OA
ATOM     18  H   UNL     1      54.605  16.715  -7.748  0.00  0.00    +0.210 HD
ENDBRANCH   3  17
BRANCH   4  19
ATOM     19  C   UNL     1      58.379  17.473  -7.401  0.00  0.00    +0.206 C 
BRANCH  19  20
ATOM     20  O   UNL     1      58.994  18.586  -6.795  0.00  0.00    -0.284 OA
BRANCH  20  21
ATOM     21  P   UNL     1      60.631  18.611  -7.265  0.00  0.00    +0.483 P 
ATOM     22  O   UNL     1      61.252  17.282  -6.895  0.00  0.00    -0.227 OA
BRANCH  21  23
ATOM     23  O   UNL     1      60.730  18.823  -8.945  0.00  0.00    -0.302 OA
ATOM     24  H   UNL     1      61.630  18.490  -9.190  0.00  0.00    +0.222 HD
ENDBRANCH  21  23
BRANCH  21  25
ATOM     25  O   UNL     1      61.431  19.863  -6.433  0.00  0.00    -0.186 OA
BRANCH  25  26
ATOM     26  P   UNL     1      61.111  19.669  -4.773  0.00  0.00    +0.481 P 
ATOM     27  O   UNL     1      60.117  20.725  -4.346  0.00  0.00    -0.227 OA
BRANCH  26  28
ATOM     28  O   UNL     1      60.457  18.140  -4.454  0.00  0.00    -0.302 OA
ATOM     29  H   UNL     1      60.423  17.690  -5.337  0.00  0.00    +0.222 HD
ENDBRANCH  26  28
BRANCH  26  30
ATOM     30  O   UNL     1      62.537  19.873  -3.883  0.00  0.00    -0.302 OA
ATOM     31  H   UNL     1      62.323  19.528  -2.980  0.00  0.00    +0.222 HD
ENDBRANCH  26  30
ENDBRANCH  25  26
ENDBRANCH  21  25
ENDBRANCH  20  21
ENDBRANCH  19  20
ENDBRANCH   4  19
TORSDOF 11
ENDMDL
