MODEL 11
REMARK VINA RESULT:    -6.843      6.096      9.129
REMARK INTER + INTRA:         -11.587
REMARK INTER:                  -9.711
REMARK INTRA:                  -1.876
REMARK UNBOUND:                -1.343
REMARK  Name = UDP
REMARK  11 active torsions:
REMARK  status: ('A' for Active; 'I' for Inactive)
REMARK    1  A    between atoms: N_1  and  C_9
REMARK    2  A    between atoms: C_10  and  O_11
REMARK    3  A    between atoms: C_12  and  O_15
REMARK    4  A    between atoms: C_13  and  C_16
REMARK    5  A    between atoms: C_16  and  O_17
REMARK    6  A    between atoms: O_17  and  P_18
REMARK    7  A    between atoms: P_18  and  O_20
REMARK    8  A    between atoms: P_18  and  O_21
REMARK    9  A    between atoms: O_21  and  P_22
REMARK   10  A    between atoms: P_22  and  O_24
REMARK   11  A    between atoms: P_22  and  O_25
REMARK                            x       y       z     vdW  Elec       q    Type
REMARK                         _______ _______ _______ _____ _____    ______ ____
ROOT
ATOM      1  C   UNL     1      51.816  25.778  -1.576  0.00  0.00    +0.255 C 
ATOM      2  C   UNL     1      52.328  25.766  -0.125  0.00  0.00    +0.195 C 
ATOM      3  C   UNL     1      53.800  25.422  -0.266  0.00  0.00    +0.178 C 
ATOM      4  C   UNL     1      54.076  25.728  -1.732  0.00  0.00    +0.178 C 
ATOM      5  O   UNL     1      52.888  25.494  -2.452  0.00  0.00    -0.346 OA
ENDROOT
BRANCH   1   6
ATOM      6  N   UNL     1      50.727  24.797  -1.763  0.00  0.00    -0.271 N 
ATOM      7  C   UNL     1      49.470  24.999  -1.241  0.00  0.00    +0.331 A 
ATOM      8  N   UNL     1      48.483  24.083  -1.449  0.00  0.00    -0.275 N 
ATOM      9  C   UNL     1      48.709  22.962  -2.183  0.00  0.00    +0.254 A 
ATOM     10  C   UNL     1      49.964  22.740  -2.738  0.00  0.00    +0.088 A 
ATOM     11  C   UNL     1      50.967  23.681  -2.519  0.00  0.00    +0.098 A 
ATOM     12  O   UNL     1      49.212  26.035  -0.569  0.00  0.00    -0.246 OA
ATOM     13  O   UNL     1      47.783  22.127  -2.363  0.00  0.00    -0.268 OA
ATOM     14  H   UNL     1      47.534  24.246  -1.042  0.00  0.00    +0.173 HD
ENDBRANCH   1   6
BRANCH   2  15
ATOM     15  O   UNL     1      52.120  27.011   0.503  0.00  0.00    -0.385 OA
ATOM     16  H   UNL     1      52.014  27.700  -0.204  0.00  0.00    +0.210 HD
ENDBRANCH   2  15
BRANCH   3  17
ATOM     17  O   UNL     1      54.622  26.195   0.571  0.00  0.00    -0.386 OA
ATOM     18  H   UNL     1      55.230  25.557   1.030  0.00  0.00    +0.210 HD
ENDBRANCH   3  17
BRANCH   4  19
ATOM     19  C   UNL     1      55.207  24.864  -2.295  0.00  0.00    +0.206 C 
BRANCH  19  20
ATOM     20  O   UNL     1      55.911  24.276  -1.226  0.00  0.00    -0.284 OA
BRANCH  20  21
ATOM     21  P   UNL     1      57.482  24.935  -1.196  0.00  0.00    +0.483 P 
ATOM     22  O   UNL     1      57.926  25.168  -2.623  0.00  0.00    -0.227 OA
BRANCH  21  23
ATOM     23  O   UNL     1      57.453  26.417  -0.373  0.00  0.00    -0.302 OA
ATOM     24  H   UNL     1      56.550  26.465   0.031  0.00  0.00    +0.222 HD
ENDBRANCH  21  23
BRANCH  21  25
ATOM     25  O   UNL     1      58.536  23.828  -0.445  0.00  0.00    -0.186 OA
BRANCH  25  26
ATOM     26  P   UNL     1      58.044  22.261  -0.890  0.00  0.00    +0.481 P 
ATOM     27  O   UNL     1      59.162  21.295  -0.568  0.00  0.00    -0.227 OA
BRANCH  26  28
ATOM     28  O   UNL     1      56.655  21.795  -0.040  0.00  0.00    -0.302 OA
ATOM     29  H   UNL     1      56.983  21.174   0.660  0.00  0.00    +0.222 HD
ENDBRANCH  26  28
BRANCH  26  30
ATOM     30  O   UNL     1      57.739  22.202  -2.554  0.00  0.00    -0.302 OA
ATOM     31  H   UNL     1      57.685  23.150  -2.835  0.00  0.00    +0.222 HD
ENDBRANCH  26  30
ENDBRANCH  25  26
ENDBRANCH  21  25
ENDBRANCH  20  21
ENDBRANCH  19  20
ENDBRANCH   4  19
TORSDOF 11
ENDMDL
