MODEL 3
REMARK VINA RESULT:    -6.651     10.208     12.908
REMARK INTER + INTRA:          -9.928
REMARK INTER:                  -9.053
REMARK INTRA:                  -0.875
REMARK UNBOUND:                -0.944
REMARK  Name = 5GP
REMARK  8 active torsions:
REMARK  status: ('A' for Active; 'I' for Inactive)
REMARK    1  A    between atoms: P_1  and  O_3
REMARK    2  A    between atoms: P_1  and  O_4
REMARK    3  A    between atoms: P_1  and  O_5
REMARK    4  A    between atoms: O_5  and  C_6
REMARK    5  A    between atoms: C_6  and  C_7
REMARK    6  A    between atoms: C_9  and  O_10
REMARK    7  A    between atoms: C_11  and  O_12
REMARK    8  A    between atoms: C_13  and  N_14
REMARK                            x       y       z     vdW  Elec       q    Type
REMARK                         _______ _______ _______ _____ _____    ______ ____
ROOT
ATOM      1  C   UNL     1      36.737  -3.616  45.455  0.00  0.00    +0.178 C 
ATOM      2  O   UNL     1      35.470  -3.199  45.928  0.00  0.00    -0.346 OA
ATOM      3  C   UNL     1      37.579  -4.114  46.639  0.00  0.00    +0.178 C 
ATOM      4  C   UNL     1      36.522  -4.485  47.652  0.00  0.00    +0.195 C 
ATOM      5  C   UNL     1      35.362  -3.557  47.292  0.00  0.00    +0.253 C 
ENDROOT
BRANCH   5   6
ATOM      6  N   UNL     1      34.079  -4.214  47.541  0.00  0.00    -0.285 N 
ATOM      7  C   UNL     1      33.208  -4.729  46.632  0.00  0.00    +0.203 A 
ATOM      8  N   UNL     1      32.150  -5.372  47.203  0.00  0.00    -0.229 NA
ATOM      9  C   UNL     1      32.404  -5.246  48.519  0.00  0.00    +0.172 A 
ATOM     10  C   UNL     1      31.686  -5.728  49.604  0.00  0.00    +0.280 A 
ATOM     11  O   UNL     1      30.614  -6.369  49.444  0.00  0.00    -0.265 OA
ATOM     12  N   UNL     1      32.182  -5.488  50.857  0.00  0.00    -0.293 N 
ATOM     13  C   UNL     1      33.359  -4.798  51.036  0.00  0.00    +0.195 A 
ATOM     14  N   UNL     1      33.861  -4.564  52.351  0.00  0.00    -0.329 N 
ATOM     15  N   UNL     1      34.057  -4.332  49.955  0.00  0.00    -0.196 NA
ATOM     16  C   UNL     1      33.552  -4.566  48.720  0.00  0.00    +0.171 A 
ATOM     17  H   UNL     1      31.658  -5.841  51.690  0.00  0.00    +0.172 HD
ATOM     18  H   UNL     1      34.754  -4.042  52.490  0.00  0.00    +0.145 HD
ATOM     19  H   UNL     1      33.344  -4.912  53.189  0.00  0.00    +0.145 HD
ENDBRANCH   5   6
BRANCH   3  20
ATOM     20  O   UNL     1      38.445  -3.107  47.113  0.00  0.00    -0.386 OA
ATOM     21  H   UNL     1      39.036  -3.502  47.806  0.00  0.00    +0.210 HD
ENDBRANCH   3  20
BRANCH   4  22
ATOM     22  O   UNL     1      36.952  -4.362  48.989  0.00  0.00    -0.385 OA
ATOM     23  H   UNL     1      37.738  -4.952  49.127  0.00  0.00    +0.210 HD
ENDBRANCH   4  22
BRANCH   1  24
ATOM     24  C   UNL     1      36.546  -4.710  44.397  0.00  0.00    +0.206 C 
BRANCH  24  25
ATOM     25  O   UNL     1      35.325  -4.498  43.729  0.00  0.00    -0.284 OA
BRANCH  25  26
ATOM     26  P   UNL     1      35.659  -3.935  42.153  0.00  0.00    +0.472 P 
ATOM     27  O   UNL     1      34.892  -2.657  41.888  0.00  0.00    -0.228 OA
BRANCH  26  28
ATOM     28  O   UNL     1      35.241  -5.106  41.002  0.00  0.00    -0.303 OA
ATOM     29  H   UNL     1      35.953  -5.060  40.315  0.00  0.00    +0.222 HD
ENDBRANCH  26  28
BRANCH  26  30
ATOM     30  O   UNL     1      37.315  -3.619  42.027  0.00  0.00    -0.303 OA
ATOM     31  H   UNL     1      37.516  -3.013  42.785  0.00  0.00    +0.222 HD
ENDBRANCH  26  30
ENDBRANCH  25  26
ENDBRANCH  24  25
ENDBRANCH   1  24
TORSDOF 8
ENDMDL
