MODEL 10
REMARK VINA RESULT:    -6.411      1.562      2.648
REMARK INTER + INTRA:          -9.603
REMARK INTER:                  -8.569
REMARK INTRA:                  -1.034
REMARK UNBOUND:                -0.944
REMARK  Name = 5GP
REMARK  8 active torsions:
REMARK  status: ('A' for Active; 'I' for Inactive)
REMARK    1  A    between atoms: P_1  and  O_3
REMARK    2  A    between atoms: P_1  and  O_4
REMARK    3  A    between atoms: P_1  and  O_5
REMARK    4  A    between atoms: O_5  and  C_6
REMARK    5  A    between atoms: C_6  and  C_7
REMARK    6  A    between atoms: C_9  and  O_10
REMARK    7  A    between atoms: C_11  and  O_12
REMARK    8  A    between atoms: C_13  and  N_14
REMARK                            x       y       z     vdW  Elec       q    Type
REMARK                         _______ _______ _______ _____ _____    ______ ____
ROOT
ATOM      1  C   UNL     1      24.032  -4.522  53.217  0.00  0.00    +0.178 C 
ATOM      2  O   UNL     1      23.947  -4.458  51.806  0.00  0.00    -0.346 OA
ATOM      3  C   UNL     1      25.491  -4.769  53.624  0.00  0.00    +0.178 C 
ATOM      4  C   UNL     1      26.252  -4.259  52.423  0.00  0.00    +0.195 C 
ATOM      5  C   UNL     1      25.259  -4.462  51.279  0.00  0.00    +0.253 C 
ENDROOT
BRANCH   5   6
ATOM      6  N   UNL     1      25.404  -3.406  50.277  0.00  0.00    -0.285 N 
ATOM      7  C   UNL     1      25.800  -3.525  48.981  0.00  0.00    +0.203 A 
ATOM      8  N   UNL     1      25.724  -2.356  48.285  0.00  0.00    -0.229 NA
ATOM      9  C   UNL     1      25.248  -1.495  49.204  0.00  0.00    +0.172 A 
ATOM     10  C   UNL     1      24.934  -0.150  49.072  0.00  0.00    +0.280 A 
ATOM     11  O   UNL     1      25.105   0.455  47.980  0.00  0.00    -0.265 OA
ATOM     12  N   UNL     1      24.429   0.500  50.164  0.00  0.00    -0.293 N 
ATOM     13  C   UNL     1      24.230  -0.160  51.355  0.00  0.00    +0.195 A 
ATOM     14  N   UNL     1      23.696   0.536  52.481  0.00  0.00    -0.329 N 
ATOM     15  N   UNL     1      24.542  -1.488  51.469  0.00  0.00    -0.196 NA
ATOM     16  C   UNL     1      25.051  -2.119  50.384  0.00  0.00    +0.171 A 
ATOM     17  H   UNL     1      24.185   1.514  50.089  0.00  0.00    +0.172 HD
ATOM     18  H   UNL     1      23.543   0.037  53.385  0.00  0.00    +0.145 HD
ATOM     19  H   UNL     1      23.451   1.548  52.415  0.00  0.00    +0.145 HD
ENDBRANCH   5   6
BRANCH   3  20
ATOM     20  O   UNL     1      25.731  -6.137  53.869  0.00  0.00    -0.386 OA
ATOM     21  H   UNL     1      25.177  -6.419  54.644  0.00  0.00    +0.210 HD
ENDBRANCH   3  20
BRANCH   4  22
ATOM     22  O   UNL     1      27.489  -4.903  52.222  0.00  0.00    -0.385 OA
ATOM     23  H   UNL     1      27.577  -5.639  52.881  0.00  0.00    +0.210 HD
ENDBRANCH   4  22
BRANCH   1  24
ATOM     24  C   UNL     1      23.491  -3.217  53.815  0.00  0.00    +0.206 C 
BRANCH  24  25
ATOM     25  O   UNL     1      23.932  -3.102  55.147  0.00  0.00    -0.284 OA
BRANCH  25  26
ATOM     26  P   UNL     1      24.130  -1.447  55.513  0.00  0.00    +0.472 P 
ATOM     27  O   UNL     1      24.496  -1.281  56.972  0.00  0.00    -0.228 OA
BRANCH  26  28
ATOM     28  O   UNL     1      22.709  -0.588  55.175  0.00  0.00    -0.303 OA
ATOM     29  H   UNL     1      21.971  -1.194  55.440  0.00  0.00    +0.222 HD
ENDBRANCH  26  28
BRANCH  26  30
ATOM     30  O   UNL     1      25.380  -0.824  54.558  0.00  0.00    -0.303 OA
ATOM     31  H   UNL     1      25.783  -0.105  55.107  0.00  0.00    +0.222 HD
ENDBRANCH  26  30
ENDBRANCH  25  26
ENDBRANCH  24  25
ENDBRANCH   1  24
TORSDOF 8
ENDMDL
