MODEL 11
REMARK VINA RESULT:    -6.405      2.505      4.175
REMARK INTER + INTRA:          -9.596
REMARK INTER:                  -8.631
REMARK INTRA:                  -0.964
REMARK UNBOUND:                -0.944
REMARK  Name = 5GP
REMARK  8 active torsions:
REMARK  status: ('A' for Active; 'I' for Inactive)
REMARK    1  A    between atoms: P_1  and  O_3
REMARK    2  A    between atoms: P_1  and  O_4
REMARK    3  A    between atoms: P_1  and  O_5
REMARK    4  A    between atoms: O_5  and  C_6
REMARK    5  A    between atoms: C_6  and  C_7
REMARK    6  A    between atoms: C_9  and  O_10
REMARK    7  A    between atoms: C_11  and  O_12
REMARK    8  A    between atoms: C_13  and  N_14
REMARK                            x       y       z     vdW  Elec       q    Type
REMARK                         _______ _______ _______ _____ _____    ______ ____
ROOT
ATOM      1  C   UNL     1      25.803  -2.331  55.095  0.00  0.00    +0.178 C 
ATOM      2  O   UNL     1      25.701  -1.791  53.791  0.00  0.00    -0.346 OA
ATOM      3  C   UNL     1      24.542  -1.965  55.892  0.00  0.00    +0.178 C 
ATOM      4  C   UNL     1      23.531  -1.716  54.798  0.00  0.00    +0.195 C 
ATOM      5  C   UNL     1      24.400  -1.263  53.626  0.00  0.00    +0.253 C 
ENDROOT
BRANCH   5   6
ATOM      6  N   UNL     1      23.830  -1.715  52.356  0.00  0.00    -0.285 N 
ATOM      7  C   UNL     1      23.082  -2.825  52.118  0.00  0.00    +0.203 A 
ATOM      8  N   UNL     1      22.616  -2.897  50.840  0.00  0.00    -0.229 NA
ATOM      9  C   UNL     1      23.098  -1.768  50.285  0.00  0.00    +0.172 A 
ATOM     10  C   UNL     1      22.928  -1.276  49.000  0.00  0.00    +0.280 A 
ATOM     11  O   UNL     1      22.262  -1.914  48.140  0.00  0.00    -0.265 OA
ATOM     12  N   UNL     1      23.503  -0.073  48.693  0.00  0.00    -0.293 N 
ATOM     13  C   UNL     1      24.222   0.631  49.632  0.00  0.00    +0.195 A 
ATOM     14  N   UNL     1      24.808   1.887  49.293  0.00  0.00    -0.329 N 
ATOM     15  N   UNL     1      24.378   0.133  50.898  0.00  0.00    -0.196 NA
ATOM     16  C   UNL     1      23.812  -1.063  51.188  0.00  0.00    +0.171 A 
ATOM     17  H   UNL     1      23.389   0.317  47.730  0.00  0.00    +0.172 HD
ATOM     18  H   UNL     1      25.352   2.424  50.003  0.00  0.00    +0.145 HD
ATOM     19  H   UNL     1      24.701   2.284  48.334  0.00  0.00    +0.145 HD
ENDBRANCH   5   6
BRANCH   3  20
ATOM     20  O   UNL     1      24.755  -0.826  56.695  0.00  0.00    -0.386 OA
ATOM     21  H   UNL     1      25.631  -0.925  57.154  0.00  0.00    +0.210 HD
ENDBRANCH   3  20
BRANCH   4  22
ATOM     22  O   UNL     1      22.531  -0.789  55.154  0.00  0.00    -0.385 OA
ATOM     23  H   UNL     1      22.034  -1.139  55.938  0.00  0.00    +0.210 HD
ENDBRANCH   4  22
BRANCH   1  24
ATOM     24  C   UNL     1      25.990  -3.851  54.999  0.00  0.00    +0.206 C 
BRANCH  24  25
ATOM     25  O   UNL     1      26.310  -4.193  53.672  0.00  0.00    -0.284 OA
BRANCH  25  26
ATOM     26  P   UNL     1      25.555  -5.677  53.296  0.00  0.00    +0.472 P 
ATOM     27  O   UNL     1      25.278  -5.754  51.810  0.00  0.00    -0.228 OA
BRANCH  26  28
ATOM     28  O   UNL     1      24.108  -5.844  54.162  0.00  0.00    -0.303 OA
ATOM     29  H   UNL     1      24.379  -6.158  55.061  0.00  0.00    +0.222 HD
ENDBRANCH  26  28
BRANCH  26  30
ATOM     30  O   UNL     1      26.594  -6.940  53.728  0.00  0.00    -0.303 OA
ATOM     31  H   UNL     1      26.491  -7.610  53.005  0.00  0.00    +0.222 HD
ENDBRANCH  26  30
ENDBRANCH  25  26
ENDBRANCH  24  25
ENDBRANCH   1  24
TORSDOF 8
ENDMDL
