MODEL 5
REMARK VINA RESULT:    -6.553      8.776     10.708
REMARK INTER + INTRA:          -9.795
REMARK INTER:                  -9.055
REMARK INTRA:                  -0.740
REMARK UNBOUND:                -0.944
REMARK  Name = 5GP
REMARK  8 active torsions:
REMARK  status: ('A' for Active; 'I' for Inactive)
REMARK    1  A    between atoms: P_1  and  O_3
REMARK    2  A    between atoms: P_1  and  O_4
REMARK    3  A    between atoms: P_1  and  O_5
REMARK    4  A    between atoms: O_5  and  C_6
REMARK    5  A    between atoms: C_6  and  C_7
REMARK    6  A    between atoms: C_9  and  O_10
REMARK    7  A    between atoms: C_11  and  O_12
REMARK    8  A    between atoms: C_13  and  N_14
REMARK                            x       y       z     vdW  Elec       q    Type
REMARK                         _______ _______ _______ _____ _____    ______ ____
ROOT
ATOM      1  C   UNL     1      32.699  -5.037  49.912  0.00  0.00    +0.178 C 
ATOM      2  O   UNL     1      33.468  -5.498  48.817  0.00  0.00    -0.346 OA
ATOM      3  C   UNL     1      33.557  -4.097  50.771  0.00  0.00    +0.178 C 
ATOM      4  C   UNL     1      34.603  -3.627  49.788  0.00  0.00    +0.195 C 
ATOM      5  C   UNL     1      34.692  -4.791  48.802  0.00  0.00    +0.253 C 
ENDROOT
BRANCH   5   6
ATOM      6  N   UNL     1      34.975  -4.302  47.452  0.00  0.00    -0.285 N 
ATOM      7  C   UNL     1      34.475  -3.198  46.835  0.00  0.00    +0.203 A 
ATOM      8  N   UNL     1      35.028  -2.967  45.611  0.00  0.00    -0.229 NA
ATOM      9  C   UNL     1      35.912  -3.977  45.491  0.00  0.00    +0.172 A 
ATOM     10  C   UNL     1      36.796  -4.255  44.459  0.00  0.00    +0.280 A 
ATOM     11  O   UNL     1      36.843  -3.532  43.428  0.00  0.00    -0.265 OA
ATOM     12  N   UNL     1      37.622  -5.337  44.597  0.00  0.00    -0.293 N 
ATOM     13  C   UNL     1      37.582  -6.122  45.727  0.00  0.00    +0.195 A 
ATOM     14  N   UNL     1      38.456  -7.243  45.854  0.00  0.00    -0.329 N 
ATOM     15  N   UNL     1      36.705  -5.833  46.738  0.00  0.00    -0.196 NA
ATOM     16  C   UNL     1      35.886  -4.764  46.587  0.00  0.00    +0.171 A 
ATOM     17  H   UNL     1      38.297  -5.567  43.833  0.00  0.00    +0.172 HD
ATOM     18  H   UNL     1      38.428  -7.839  46.710  0.00  0.00    +0.145 HD
ATOM     19  H   UNL     1      39.132  -7.480  45.095  0.00  0.00    +0.145 HD
ENDBRANCH   5   6
BRANCH   3  20
ATOM     20  O   UNL     1      34.121  -4.778  51.869  0.00  0.00    -0.386 OA
ATOM     21  H   UNL     1      34.522  -4.108  52.482  0.00  0.00    +0.210 HD
ENDBRANCH   3  20
BRANCH   4  22
ATOM     22  O   UNL     1      35.834  -3.297  50.388  0.00  0.00    -0.385 OA
ATOM     23  H   UNL     1      36.236  -4.120  50.770  0.00  0.00    +0.210 HD
ENDBRANCH   4  22
BRANCH   1  24
ATOM     24  C   UNL     1      31.443  -4.331  49.384  0.00  0.00    +0.206 C 
BRANCH  24  25
ATOM     25  O   UNL     1      30.710  -3.819  50.472  0.00  0.00    -0.284 OA
BRANCH  25  26
ATOM     26  P   UNL     1      30.179  -2.247  50.077  0.00  0.00    +0.472 P 
ATOM     27  O   UNL     1      31.365  -1.313  49.969  0.00  0.00    -0.228 OA
BRANCH  26  28
ATOM     28  O   UNL     1      29.099  -1.671  51.249  0.00  0.00    -0.303 OA
ATOM     29  H   UNL     1      28.553  -2.457  51.506  0.00  0.00    +0.222 HD
ENDBRANCH  26  28
BRANCH  26  30
ATOM     30  O   UNL     1      29.383  -2.299  48.586  0.00  0.00    -0.303 OA
ATOM     31  H   UNL     1      30.103  -2.433  47.919  0.00  0.00    +0.222 HD
ENDBRANCH  26  30
ENDBRANCH  25  26
ENDBRANCH  24  25
ENDBRANCH   1  24
TORSDOF 8
ENDMDL
