MODEL 1
REMARK VINA RESULT:    -6.837      0.000      0.000
REMARK INTER + INTRA:         -10.179
REMARK INTER:                  -9.235
REMARK INTRA:                  -0.944
REMARK UNBOUND:                -0.944
REMARK  Name = 5GP
REMARK  8 active torsions:
REMARK  status: ('A' for Active; 'I' for Inactive)
REMARK    1  A    between atoms: P_1  and  O_3
REMARK    2  A    between atoms: P_1  and  O_4
REMARK    3  A    between atoms: P_1  and  O_5
REMARK    4  A    between atoms: O_5  and  C_6
REMARK    5  A    between atoms: C_6  and  C_7
REMARK    6  A    between atoms: C_9  and  O_10
REMARK    7  A    between atoms: C_11  and  O_12
REMARK    8  A    between atoms: C_13  and  N_14
REMARK                            x       y       z     vdW  Elec       q    Type
REMARK                         _______ _______ _______ _____ _____    ______ ____
ROOT
ATOM      1  C   UNL     1      24.517  -3.734  52.855  0.00  0.00    +0.178 C 
ATOM      2  O   UNL     1      24.092  -3.293  51.579  0.00  0.00    -0.346 OA
ATOM      3  C   UNL     1      26.017  -3.451  53.012  0.00  0.00    +0.178 C 
ATOM      4  C   UNL     1      26.240  -2.333  52.020  0.00  0.00    +0.195 C 
ATOM      5  C   UNL     1      25.155  -2.585  50.974  0.00  0.00    +0.253 C 
ENDROOT
BRANCH   5   6
ATOM      6  N   UNL     1      24.669  -1.320  50.421  0.00  0.00    -0.285 N 
ATOM      7  C   UNL     1      23.606  -0.577  50.831  0.00  0.00    +0.203 A 
ATOM      8  N   UNL     1      23.489   0.608  50.167  0.00  0.00    -0.229 NA
ATOM      9  C   UNL     1      24.539   0.580  49.325  0.00  0.00    +0.172 A 
ATOM     10  C   UNL     1      24.960   1.533  48.409  0.00  0.00    +0.280 A 
ATOM     11  O   UNL     1      24.322   2.608  48.247  0.00  0.00    -0.265 OA
ATOM     12  N   UNL     1      26.093   1.272  47.687  0.00  0.00    -0.293 N 
ATOM     13  C   UNL     1      26.798   0.104  47.868  0.00  0.00    +0.195 A 
ATOM     14  N   UNL     1      27.981  -0.146  47.110  0.00  0.00    -0.329 N 
ATOM     15  N   UNL     1      26.372  -0.826  48.779  0.00  0.00    -0.196 NA
ATOM     16  C   UNL     1      25.244  -0.561  49.481  0.00  0.00    +0.171 A 
ATOM     17  H   UNL     1      26.429   1.975  46.991  0.00  0.00    +0.172 HD
ATOM     18  H   UNL     1      28.518  -1.030  47.246  0.00  0.00    +0.145 HD
ATOM     19  H   UNL     1      28.323   0.551  46.411  0.00  0.00    +0.145 HD
ENDBRANCH   5   6
BRANCH   3  20
ATOM     20  O   UNL     1      26.789  -4.593  52.716  0.00  0.00    -0.386 OA
ATOM     21  H   UNL     1      26.232  -5.218  52.183  0.00  0.00    +0.210 HD
ENDBRANCH   3  20
BRANCH   4  22
ATOM     22  O   UNL     1      27.545  -2.302  51.488  0.00  0.00    -0.385 OA
ATOM     23  H   UNL     1      27.645  -3.049  50.843  0.00  0.00    +0.210 HD
ENDBRANCH   4  22
BRANCH   1  24
ATOM     24  C   UNL     1      23.691  -3.024  53.936  0.00  0.00    +0.206 C 
BRANCH  24  25
ATOM     25  O   UNL     1      24.445  -2.957  55.123  0.00  0.00    -0.284 OA
BRANCH  25  26
ATOM     26  P   UNL     1      24.383  -1.358  55.716  0.00  0.00    +0.472 P 
ATOM     27  O   UNL     1      24.597  -1.355  57.214  0.00  0.00    -0.228 OA
BRANCH  26  28
ATOM     28  O   UNL     1      22.893  -0.643  55.345  0.00  0.00    -0.303 OA
ATOM     29  H   UNL     1      22.268  -0.971  56.041  0.00  0.00    +0.222 HD
ENDBRANCH  26  28
BRANCH  26  30
ATOM     30  O   UNL     1      25.613  -0.458  54.983  0.00  0.00    -0.303 OA
ATOM     31  H   UNL     1      26.068   0.006  55.731  0.00  0.00    +0.222 HD
ENDBRANCH  26  30
ENDBRANCH  25  26
ENDBRANCH  24  25
ENDBRANCH   1  24
TORSDOF 8
ENDMDL
