MODEL 9
REMARK VINA RESULT:    -6.456      2.798      4.226
REMARK INTER + INTRA:          -9.665
REMARK INTER:                  -8.835
REMARK INTRA:                  -0.830
REMARK UNBOUND:                -0.944
REMARK  Name = 5GP
REMARK  8 active torsions:
REMARK  status: ('A' for Active; 'I' for Inactive)
REMARK    1  A    between atoms: P_1  and  O_3
REMARK    2  A    between atoms: P_1  and  O_4
REMARK    3  A    between atoms: P_1  and  O_5
REMARK    4  A    between atoms: O_5  and  C_6
REMARK    5  A    between atoms: C_6  and  C_7
REMARK    6  A    between atoms: C_9  and  O_10
REMARK    7  A    between atoms: C_11  and  O_12
REMARK    8  A    between atoms: C_13  and  N_14
REMARK                            x       y       z     vdW  Elec       q    Type
REMARK                         _______ _______ _______ _____ _____    ______ ____
ROOT
ATOM      1  C   UNL     1      24.250  -1.361  52.556  0.00  0.00    +0.178 C 
ATOM      2  O   UNL     1      25.543  -0.887  52.230  0.00  0.00    -0.346 OA
ATOM      3  C   UNL     1      23.532  -1.793  51.269  0.00  0.00    +0.178 C 
ATOM      4  C   UNL     1      24.686  -2.072  50.335  0.00  0.00    +0.195 C 
ATOM      5  C   UNL     1      25.783  -1.148  50.862  0.00  0.00    +0.253 C 
ENDROOT
BRANCH   5   6
ATOM      6  N   UNL     1      27.101  -1.760  50.688  0.00  0.00    -0.285 N 
ATOM      7  C   UNL     1      27.401  -3.075  50.512  0.00  0.00    +0.203 A 
ATOM      8  N   UNL     1      28.723  -3.299  50.273  0.00  0.00    -0.229 NA
ATOM      9  C   UNL     1      29.242  -2.057  50.295  0.00  0.00    +0.172 A 
ATOM     10  C   UNL     1      30.550  -1.645  50.086  0.00  0.00    +0.280 A 
ATOM     11  O   UNL     1      31.467  -2.478  49.857  0.00  0.00    -0.265 OA
ATOM     12  N   UNL     1      30.814  -0.303  50.132  0.00  0.00    -0.293 N 
ATOM     13  C   UNL     1      29.813   0.610  50.371  0.00  0.00    +0.195 A 
ATOM     14  N   UNL     1      30.109   2.006  50.408  0.00  0.00    -0.329 N 
ATOM     15  N   UNL     1      28.527   0.188  50.572  0.00  0.00    -0.196 NA
ATOM     16  C   UNL     1      28.278  -1.143  50.534  0.00  0.00    +0.171 A 
ATOM     17  H   UNL     1      31.793   0.031  49.977  0.00  0.00    +0.172 HD
ATOM     18  H   UNL     1      29.352   2.701  50.587  0.00  0.00    +0.145 HD
ATOM     19  H   UNL     1      31.083   2.349  50.256  0.00  0.00    +0.145 HD
ENDBRANCH   5   6
BRANCH   3  20
ATOM     20  O   UNL     1      22.686  -0.774  50.786  0.00  0.00    -0.386 OA
ATOM     21  H   UNL     1      23.136  -0.330  50.020  0.00  0.00    +0.210 HD
ENDBRANCH   3  20
BRANCH   4  22
ATOM     22  O   UNL     1      24.375  -1.866  48.976  0.00  0.00    -0.385 OA
ATOM     23  H   UNL     1      23.889  -2.661  48.635  0.00  0.00    +0.210 HD
ENDBRANCH   4  22
BRANCH   1  24
ATOM     24  C   UNL     1      24.374  -2.522  53.551  0.00  0.00    +0.206 C 
BRANCH  24  25
ATOM     25  O   UNL     1      23.984  -2.077  54.829  0.00  0.00    -0.284 OA
BRANCH  25  26
ATOM     26  P   UNL     1      25.382  -1.627  55.698  0.00  0.00    +0.472 P 
ATOM     27  O   UNL     1      25.507  -0.119  55.729  0.00  0.00    -0.228 OA
BRANCH  26  28
ATOM     28  O   UNL     1      26.766  -2.304  54.992  0.00  0.00    -0.303 OA
ATOM     29  H   UNL     1      27.161  -1.577  54.448  0.00  0.00    +0.222 HD
ENDBRANCH  26  28
BRANCH  26  30
ATOM     30  O   UNL     1      25.247  -2.200  57.283  0.00  0.00    -0.303 OA
ATOM     31  H   UNL     1      25.650  -1.491  57.844  0.00  0.00    +0.222 HD
ENDBRANCH  26  30
ENDBRANCH  25  26
ENDBRANCH  24  25
ENDBRANCH   1  24
TORSDOF 8
ENDMDL
