MODEL 13
REMARK VINA RESULT:    -6.285      1.929      2.448
REMARK INTER + INTRA:          -9.434
REMARK INTER:                  -8.379
REMARK INTRA:                  -1.054
REMARK UNBOUND:                -0.944
REMARK  Name = 5GP
REMARK  8 active torsions:
REMARK  status: ('A' for Active; 'I' for Inactive)
REMARK    1  A    between atoms: P_1  and  O_3
REMARK    2  A    between atoms: P_1  and  O_4
REMARK    3  A    between atoms: P_1  and  O_5
REMARK    4  A    between atoms: O_5  and  C_6
REMARK    5  A    between atoms: C_6  and  C_7
REMARK    6  A    between atoms: C_9  and  O_10
REMARK    7  A    between atoms: C_11  and  O_12
REMARK    8  A    between atoms: C_13  and  N_14
REMARK                            x       y       z     vdW  Elec       q    Type
REMARK                         _______ _______ _______ _____ _____    ______ ____
ROOT
ATOM      1  C   UNL     1      24.165  -3.289  53.435  0.00  0.00    +0.178 C 
ATOM      2  O   UNL     1      23.983  -3.036  52.055  0.00  0.00    -0.346 OA
ATOM      3  C   UNL     1      25.552  -2.786  53.861  0.00  0.00    +0.178 C 
ATOM      4  C   UNL     1      25.857  -1.750  52.806  0.00  0.00    +0.195 C 
ATOM      5  C   UNL     1      25.064  -2.249  51.598  0.00  0.00    +0.253 C 
ENDROOT
BRANCH   5   6
ATOM      6  N   UNL     1      24.569  -1.123  50.805  0.00  0.00    -0.285 N 
ATOM      7  C   UNL     1      23.342  -0.538  50.849  0.00  0.00    +0.203 A 
ATOM      8  N   UNL     1      23.240   0.562  50.052  0.00  0.00    -0.229 NA
ATOM      9  C   UNL     1      24.470   0.650  49.510  0.00  0.00    +0.172 A 
ATOM     10  C   UNL     1      24.980   1.594  48.631  0.00  0.00    +0.280 A 
ATOM     11  O   UNL     1      24.263   2.535  48.197  0.00  0.00    -0.265 OA
ATOM     12  N   UNL     1      26.289   1.474  48.252  0.00  0.00    -0.293 N 
ATOM     13  C   UNL     1      27.078   0.454  48.732  0.00  0.00    +0.195 A 
ATOM     14  N   UNL     1      28.443   0.352  48.329  0.00  0.00    -0.329 N 
ATOM     15  N   UNL     1      26.561  -0.468  49.602  0.00  0.00    -0.196 NA
ATOM     16  C   UNL     1      25.261  -0.346  49.963  0.00  0.00    +0.171 A 
ATOM     17  H   UNL     1      26.695   2.174  47.590  0.00  0.00    +0.172 HD
ATOM     18  H   UNL     1      29.044  -0.420  48.692  0.00  0.00    +0.145 HD
ATOM     19  H   UNL     1      28.857   1.045  47.667  0.00  0.00    +0.145 HD
ENDBRANCH   5   6
BRANCH   3  20
ATOM     20  O   UNL     1      26.496  -3.834  53.873  0.00  0.00    -0.386 OA
ATOM     21  H   UNL     1      26.348  -4.381  54.688  0.00  0.00    +0.210 HD
ENDBRANCH   3  20
BRANCH   4  22
ATOM     22  O   UNL     1      27.234  -1.589  52.553  0.00  0.00    -0.385 OA
ATOM     23  H   UNL     1      27.365  -1.432  51.582  0.00  0.00    +0.210 HD
ENDBRANCH   4  22
BRANCH   1  24
ATOM     24  C   UNL     1      23.046  -2.601  54.227  0.00  0.00    +0.206 C 
BRANCH  24  25
ATOM     25  O   UNL     1      22.222  -3.582  54.810  0.00  0.00    -0.284 OA
BRANCH  25  26
ATOM     26  P   UNL     1      20.752  -3.641  53.945  0.00  0.00    +0.472 P 
ATOM     27  O   UNL     1      20.304  -5.078  53.784  0.00  0.00    -0.228 OA
BRANCH  26  28
ATOM     28  O   UNL     1      20.928  -2.920  52.422  0.00  0.00    -0.303 OA
ATOM     29  H   UNL     1      20.404  -2.080  52.471  0.00  0.00    +0.222 HD
ENDBRANCH  26  28
BRANCH  26  30
ATOM     30  O   UNL     1      19.575  -2.793  54.814  0.00  0.00    -0.303 OA
ATOM     31  H   UNL     1      18.721  -3.008  54.360  0.00  0.00    +0.222 HD
ENDBRANCH  26  30
ENDBRANCH  25  26
ENDBRANCH  24  25
ENDBRANCH   1  24
TORSDOF 8
ENDMDL
