MODEL 6
REMARK VINA RESULT:    -6.547      6.455      8.506
REMARK INTER + INTRA:          -9.787
REMARK INTER:                  -9.145
REMARK INTRA:                  -0.642
REMARK UNBOUND:                -0.944
REMARK  Name = 5GP
REMARK  8 active torsions:
REMARK  status: ('A' for Active; 'I' for Inactive)
REMARK    1  A    between atoms: P_1  and  O_3
REMARK    2  A    between atoms: P_1  and  O_4
REMARK    3  A    between atoms: P_1  and  O_5
REMARK    4  A    between atoms: O_5  and  C_6
REMARK    5  A    between atoms: C_6  and  C_7
REMARK    6  A    between atoms: C_9  and  O_10
REMARK    7  A    between atoms: C_11  and  O_12
REMARK    8  A    between atoms: C_13  and  N_14
REMARK                            x       y       z     vdW  Elec       q    Type
REMARK                         _______ _______ _______ _____ _____    ______ ____
ROOT
ATOM      1  C   UNL     1      33.154  -3.701  49.728  0.00  0.00    +0.178 C 
ATOM      2  O   UNL     1      32.384  -2.531  49.929  0.00  0.00    -0.346 OA
ATOM      3  C   UNL     1      32.399  -4.907  50.305  0.00  0.00    +0.178 C 
ATOM      4  C   UNL     1      30.967  -4.426  50.295  0.00  0.00    +0.195 C 
ATOM      5  C   UNL     1      31.115  -2.911  50.425  0.00  0.00    +0.253 C 
ENDROOT
BRANCH   5   6
ATOM      6  N   UNL     1      30.058  -2.223  49.684  0.00  0.00    -0.285 N 
ATOM      7  C   UNL     1      29.116  -2.764  48.865  0.00  0.00    +0.203 A 
ATOM      8  N   UNL     1      28.208  -1.855  48.413  0.00  0.00    -0.229 NA
ATOM      9  C   UNL     1      28.617  -0.713  48.997  0.00  0.00    +0.172 A 
ATOM     10  C   UNL     1      28.063   0.557  48.933  0.00  0.00    +0.280 A 
ATOM     11  O   UNL     1      27.040   0.788  48.234  0.00  0.00    -0.265 OA
ATOM     12  N   UNL     1      28.660   1.554  49.656  0.00  0.00    -0.293 N 
ATOM     13  C   UNL     1      29.770   1.304  50.429  0.00  0.00    +0.195 A 
ATOM     14  N   UNL     1      30.373   2.357  51.181  0.00  0.00    -0.329 N 
ATOM     15  N   UNL     1      30.303   0.044  50.485  0.00  0.00    -0.196 NA
ATOM     16  C   UNL     1      29.710  -0.933  49.758  0.00  0.00    +0.171 A 
ATOM     17  H   UNL     1      28.260   2.519  49.622  0.00  0.00    +0.172 HD
ATOM     18  H   UNL     1      31.214   2.169  51.769  0.00  0.00    +0.145 HD
ATOM     19  H   UNL     1      29.982   3.324  51.152  0.00  0.00    +0.145 HD
ENDBRANCH   5   6
BRANCH   3  20
ATOM     20  O   UNL     1      32.849  -5.222  51.604  0.00  0.00    -0.386 OA
ATOM     21  H   UNL     1      33.455  -6.007  51.544  0.00  0.00    +0.210 HD
ENDBRANCH   3  20
BRANCH   4  22
ATOM     22  O   UNL     1      30.169  -5.006  51.300  0.00  0.00    -0.385 OA
ATOM     23  H   UNL     1      29.306  -5.290  50.901  0.00  0.00    +0.210 HD
ENDBRANCH   4  22
BRANCH   1  24
ATOM     24  C   UNL     1      33.431  -3.872  48.229  0.00  0.00    +0.206 C 
BRANCH  24  25
ATOM     25  O   UNL     1      34.199  -5.035  48.031  0.00  0.00    -0.284 OA
BRANCH  25  26
ATOM     26  P   UNL     1      35.811  -4.576  47.712  0.00  0.00    +0.472 P 
ATOM     27  O   UNL     1      35.832  -3.346  46.830  0.00  0.00    -0.228 OA
BRANCH  26  28
ATOM     28  O   UNL     1      36.652  -5.839  46.959  0.00  0.00    -0.303 OA
ATOM     29  H   UNL     1      36.409  -5.778  46.001  0.00  0.00    +0.222 HD
ENDBRANCH  26  28
BRANCH  26  30
ATOM     30  O   UNL     1      36.574  -4.214  49.178  0.00  0.00    -0.303 OA
ATOM     31  H   UNL     1      37.380  -3.699  48.923  0.00  0.00    +0.222 HD
ENDBRANCH  26  30
ENDBRANCH  25  26
ENDBRANCH  24  25
ENDBRANCH   1  24
TORSDOF 8
ENDMDL
