REMARK  Name = ligantes_elite\Elite_168.pdb
REMARK  4 active torsions:
REMARK  status: ('A' for Active; 'I' for Inactive)
REMARK    1  A    between atoms: C1_2  and  C2_4
REMARK    2  A    between atoms: C2_4  and  C3_6
REMARK    3  A    between atoms: C7_11  and  C8_12
REMARK    4  A    between atoms: C12_17  and  C13_18
REMARK                            x       y       z     vdW  Elec       q    Type
REMARK                         _______ _______ _______ _____ _____    ______ ____
ROOT
ATOM      1  C3  UNL     1       1.137  -0.303   0.310  0.00  0.00    +0.000 C 
ATOM      2  C4  UNL     1       1.896  -1.626   0.387  0.00  0.00    +0.000 C 
ATOM      3  F1  UNL     1       1.696  -2.150   1.630  0.00  0.00    +0.000 F 
ATOM      4  C5  UNL     1       1.214  -2.545  -0.613  0.00  0.00    +0.000 C 
ATOM      5  C6  UNL     1      -0.254  -2.189  -0.441  0.00  0.00    +0.000 C 
ATOM      6  C7  UNL     1      -0.234  -0.655  -0.327  0.00  0.00    +0.000 C 
ENDROOT
BRANCH   6   7
ATOM      7  C8  UNL     1      -1.415  -0.080   0.429  0.00  0.00    +0.000 C 
ATOM      8  C9  UNL     1      -1.673  -0.482   1.744  0.00  0.00    +0.000 C 
ATOM      9  N2  UNL     1      -2.689  -0.024   2.507  0.00  0.00    +0.000 NA
ATOM     10  C10 UNL     1      -3.503   0.888   1.946  0.00  0.00    +0.000 C 
ATOM     11  C11 UNL     1      -3.341   1.365   0.657  0.00  0.00    +0.000 C 
ATOM     12  C12 UNL     1      -2.282   0.884  -0.125  0.00  0.00    +0.000 C 
BRANCH  12  13
ATOM     13  C13 UNL     1      -2.116   1.423  -1.524  0.00  0.00    +0.000 C 
ATOM     14  F2  UNL     1      -3.058   2.351  -1.864  0.00  0.00    +0.000 F 
ENDBRANCH  12  13
ENDBRANCH   6   7
BRANCH   1  15
ATOM     15  C2  UNL     1       1.917   0.698  -0.516  0.00  0.00    +0.000 C 
ATOM     16  O2  UNL     1       1.601   1.086  -1.637  0.00  0.00    +0.000 OA
BRANCH  15  18
ATOM     17  N1  UNL     1       3.815   2.228  -0.622  0.00  0.00    +0.000 N 
ATOM     18  C1  UNL     1       3.190   1.267   0.120  0.00  0.00    +0.000 C 
ATOM     19  O1  UNL     1       3.592   0.870   1.199  0.00  0.00    +0.000 OA
ATOM     20  H   UNL     1       4.641   2.648  -0.288  0.00  0.00    +0.000 HD
ATOM     21  H   UNL     1       3.440   2.501  -1.490  0.00  0.00    +0.000 HD
ENDBRANCH  15  18
ENDBRANCH   1  15
TORSDOF 4
