REMARK  Name = ligantes_elite\Elite_174.pdb
REMARK  5 active torsions:
REMARK  status: ('A' for Active; 'I' for Inactive)
REMARK    1  A    between atoms: C1_1  and  O1_2
REMARK    2  A    between atoms: O1_2  and  C2_3
REMARK    3  A    between atoms: C2_3  and  C3_5
REMARK    4  A    between atoms: C4_6  and  C5_7
REMARK    5  A    between atoms: C8_11  and  C9_12
REMARK                            x       y       z     vdW  Elec       q    Type
REMARK                         _______ _______ _______ _____ _____    ______ ____
ROOT
ATOM      1  C3  UNL     1      -0.935  -0.543   0.144  0.00  0.00    +0.000 C 
ATOM      2  C4  UNL     1      -1.246  -1.911   0.770  0.00  0.00    +0.000 C 
ATOM      3  C6  UNL     1       0.114  -2.607   0.929  0.00  0.00    +0.000 C 
ATOM      4  C7  UNL     1       1.093  -1.854   0.020  0.00  0.00    +0.000 C 
ATOM      5  C8  UNL     1       0.230  -0.879  -0.805  0.00  0.00    +0.000 C 
ENDROOT
BRANCH   5   6
ATOM      6  C9  UNL     1       0.904   0.312  -1.452  0.00  0.00    +0.000 C 
ATOM      7  C10 UNL     1       2.039   0.897  -0.888  0.00  0.00    +0.000 C 
ATOM      8  N1  UNL     1       2.692   1.974  -1.385  0.00  0.00    +0.000 NA
ATOM      9  C11 UNL     1       2.202   2.522  -2.510  0.00  0.00    +0.000 C 
ATOM     10  C12 UNL     1       1.081   2.046  -3.157  0.00  0.00    +0.000 C 
ATOM     11  C13 UNL     1       0.426   0.936  -2.618  0.00  0.00    +0.000 C 
ATOM     12  I1  UNL     1      -1.288   0.300  -3.666  0.00  0.00    +0.000 I 
ENDBRANCH   5   6
BRANCH   1  13
ATOM     13  C2  UNL     1      -0.555   0.517   1.163  0.00  0.00    +0.000 C 
ATOM     14  O2  UNL     1       0.198   0.337   2.109  0.00  0.00    +0.000 OA
BRANCH  13  16
ATOM     15  C1  UNL     1      -0.807   2.777   1.722  0.00  0.00    +0.000 C 
ATOM     16  O1  UNL     1      -1.164   1.696   0.858  0.00  0.00    +0.000 OA
ENDBRANCH  13  16
ENDBRANCH   1  13
BRANCH   2  17
ATOM     17  C5  UNL     1      -2.063  -1.886   2.051  0.00  0.00    +0.000 C 
ATOM     18  F1  UNL     1      -2.401  -3.166   2.369  0.00  0.00    +0.000 F 
ENDBRANCH   2  17
TORSDOF 4
