REMARK  Name = ligantes_elite\Elite_099.pdb
REMARK  5 active torsions:
REMARK  status: ('A' for Active; 'I' for Inactive)
REMARK    1  A    between atoms: C1_2  and  C2_4
REMARK    2  A    between atoms: C2_4  and  C3_6
REMARK    3  A    between atoms: C4_7  and  O3_8
REMARK    4  A    between atoms: C7_11  and  C8_12
REMARK    5  A    between atoms: C12_17  and  C13_18
REMARK                            x       y       z     vdW  Elec       q    Type
REMARK                         _______ _______ _______ _____ _____    ______ ____
ROOT
ATOM      1  C3  UNL     1       1.404   0.238  -0.729  0.00  0.00    +0.000 C 
ATOM      2  C4  UNL     1       1.880  -0.335  -2.074  0.00  0.00    +0.000 C 
ATOM      3  C5  UNL     1       0.626  -0.635  -2.897  0.00  0.00    +0.000 C 
ATOM      4  C6  UNL     1      -0.495   0.118  -2.195  0.00  0.00    +0.000 C 
ATOM      5  C7  UNL     1      -0.117   0.001  -0.715  0.00  0.00    +0.000 C 
ENDROOT
BRANCH   5   6
ATOM      6  C8  UNL     1      -0.897   0.943   0.180  0.00  0.00    +0.000 C 
ATOM      7  C9  UNL     1      -0.807   2.329   0.000  0.00  0.00    +0.000 C 
ATOM      8  N2  UNL     1      -1.425   3.253   0.766  0.00  0.00    +0.000 NA
ATOM      9  C10 UNL     1      -2.181   2.782   1.771  0.00  0.00    +0.000 C 
ATOM     10  C11 UNL     1      -2.352   1.434   2.034  0.00  0.00    +0.000 C 
ATOM     11  C12 UNL     1      -1.723   0.471   1.226  0.00  0.00    +0.000 C 
BRANCH  11  12
ATOM     12  C13 UNL     1      -1.922  -1.003   1.522  0.00  0.00    +0.000 C 
ATOM     13  C14 UNL     1      -3.288  -1.549   1.876  0.00  0.00    +0.000 C 
ATOM     14  C15 UNL     1      -2.687  -1.867   0.544  0.00  0.00    +0.000 C 
ENDBRANCH  11  12
ENDBRANCH   5   6
BRANCH   1  15
ATOM     15  C2  UNL     1       2.125  -0.450   0.410  0.00  0.00    +0.000 C 
ATOM     16  O2  UNL     1       1.606  -1.176   1.251  0.00  0.00    +0.000 OA
BRANCH  15  18
ATOM     17  N1  UNL     1       4.235  -0.683   1.617  0.00  0.00    +0.000 N 
ATOM     18  C1  UNL     1       3.633  -0.186   0.496  0.00  0.00    +0.000 C 
ATOM     19  O1  UNL     1       4.221   0.415  -0.389  0.00  0.00    +0.000 OA
ATOM     20  H   UNL     1       5.202  -0.558   1.753  0.00  0.00    +0.000 HD
ATOM     21  H   UNL     1       3.702  -1.166   2.289  0.00  0.00    +0.000 HD
ENDBRANCH  15  18
ENDBRANCH   1  15
BRANCH   2  22
ATOM     22  O3  UNL     1       2.670   0.636  -2.752  0.00  0.00    +0.000 OA
ATOM     23  H   UNL     1       2.146   1.441  -2.888  0.00  0.00    +0.000 HD
ENDBRANCH   2  22
TORSDOF 5
