REMARK  Name = ligantes_elite\Elite_079.pdb
REMARK  5 active torsions:
REMARK  status: ('A' for Active; 'I' for Inactive)
REMARK    1  A    between atoms: C1_1  and  C2_2
REMARK    2  A    between atoms: C2_2  and  C3_3
REMARK    3  A    between atoms: C3_3  and  C4_5
REMARK    4  A    between atoms: C5_6  and  C6_7
REMARK    5  A    between atoms: C9_10  and  C10_11
REMARK                            x       y       z     vdW  Elec       q    Type
REMARK                         _______ _______ _______ _____ _____    ______ ____
ROOT
ATOM      1  C4  UNL     1       0.800  -0.821   0.397  0.00  0.00    +0.000 C 
ATOM      2  C5  UNL     1       0.582  -1.935  -0.652  0.00  0.00    +0.000 C 
ATOM      3  C6  UNL     1       1.623  -3.046  -0.526  0.00  0.00    +0.000 C 
ATOM      4  C7  UNL     1      -0.845  -2.454  -0.416  0.00  0.00    +0.000 C 
ATOM      5  C8  UNL     1      -1.344  -1.753   0.844  0.00  0.00    +0.000 C 
ATOM      6  C9  UNL     1      -0.610  -0.405   0.864  0.00  0.00    +0.000 C 
ENDROOT
BRANCH   6   7
ATOM      7  C10 UNL     1      -1.397   0.654   0.109  0.00  0.00    +0.000 C 
ATOM      8  C11 UNL     1      -1.193   0.928  -1.243  0.00  0.00    +0.000 C 
ATOM      9  N1  UNL     1      -1.878   1.848  -1.962  0.00  0.00    +0.000 NA
ATOM     10  C12 UNL     1      -2.833   2.545  -1.323  0.00  0.00    +0.000 C 
ATOM     11  C13 UNL     1      -3.140   2.360   0.008  0.00  0.00    +0.000 C 
ATOM     12  C14 UNL     1      -2.418   1.404   0.722  0.00  0.00    +0.000 C 
ATOM     13 BR1  UNL     1      -2.905   1.180   2.549  0.00  0.00    +0.000 Br
ENDBRANCH   6   7
BRANCH   1  14
ATOM     14  C3  UNL     1       1.701   0.327  -0.050  0.00  0.00    +0.000 C 
ATOM     15  O1  UNL     1       2.185   0.360  -1.181  0.00  0.00    +0.000 OA
BRANCH  14  17
ATOM     16  C1  UNL     1       2.971   2.449   0.476  0.00  0.00    +0.000 C 
ATOM     17  C2  UNL     1       2.005   1.396   0.989  0.00  0.00    +0.000 C 
ENDBRANCH  14  17
ENDBRANCH   1  14
TORSDOF 3
