REMARK  Name = ligantes_elite\Elite_153.pdb
REMARK  4 active torsions:
REMARK  status: ('A' for Active; 'I' for Inactive)
REMARK    1  A    between atoms: C1_2  and  C2_4
REMARK    2  A    between atoms: C2_4  and  C3_6
REMARK    3  A    between atoms: C4_7  and  O3_8
REMARK    4  A    between atoms: C7_11  and  C8_12
REMARK                            x       y       z     vdW  Elec       q    Type
REMARK                         _______ _______ _______ _____ _____    ______ ____
ROOT
ATOM      1  C3  UNL     1      -0.841  -0.182  -0.182  0.00  0.00    +0.000 C 
ATOM      2  C4  UNL     1      -1.933  -1.047   0.451  0.00  0.00    +0.000 C 
ATOM      3  C5  UNL     1      -1.186  -1.978   1.397  0.00  0.00    +0.000 C 
ATOM      4  C6  UNL     1      -0.026  -1.166   1.946  0.00  0.00    +0.000 C 
ATOM      5  C7  UNL     1       0.204  -0.020   0.948  0.00  0.00    +0.000 C 
ENDROOT
BRANCH   5   6
ATOM      6  C8  UNL     1       1.628   0.164   0.464  0.00  0.00    +0.000 C 
ATOM      7  C9  UNL     1       2.225   1.412   0.674  0.00  0.00    +0.000 C 
ATOM      8  N2  UNL     1       3.483   1.749   0.309  0.00  0.00    +0.000 NA
ATOM      9  C10 UNL     1       4.210   0.803  -0.310  0.00  0.00    +0.000 C 
ATOM     10  C11 UNL     1       3.730  -0.461  -0.585  0.00  0.00    +0.000 C 
ATOM     11  C12 UNL     1       2.426  -0.780  -0.197  0.00  0.00    +0.000 C 
ATOM     12 BR1  UNL     1       1.844  -2.531  -0.644  0.00  0.00    +0.000 Br
ENDBRANCH   5   6
BRANCH   1  13
ATOM     13  C2  UNL     1      -1.381   1.175  -0.612  0.00  0.00    +0.000 C 
ATOM     14  O2  UNL     1      -1.020   2.255  -0.152  0.00  0.00    +0.000 OA
BRANCH  13  16
ATOM     15  N1  UNL     1      -2.722   2.434  -2.214  0.00  0.00    +0.000 N 
ATOM     16  C1  UNL     1      -2.422   1.190  -1.737  0.00  0.00    +0.000 C 
ATOM     17  O1  UNL     1      -2.933   0.162  -2.149  0.00  0.00    +0.000 OA
ATOM     18  H   UNL     1      -3.381   2.538  -2.938  0.00  0.00    +0.000 HD
ATOM     19  H   UNL     1      -2.279   3.227  -1.834  0.00  0.00    +0.000 HD
ENDBRANCH  13  16
ENDBRANCH   1  13
BRANCH   2  20
ATOM     20  O3  UNL     1      -2.620  -1.856  -0.491  0.00  0.00    +0.000 OA
ATOM     21  H   UNL     1      -1.988  -2.442  -0.936  0.00  0.00    +0.000 HD
ENDBRANCH   2  20
TORSDOF 4
