REMARK  Name = ligantes_elite\Elite_037.pdb
REMARK  7 active torsions:
REMARK  status: ('A' for Active; 'I' for Inactive)
REMARK    1  A    between atoms: C1_1  and  C2_2
REMARK    2  A    between atoms: C2_2  and  C3_3
REMARK    3  A    between atoms: C3_3  and  C4_4
REMARK    4  A    between atoms: C4_4  and  C5_6
REMARK    5  A    between atoms: C6_7  and  C7_8
REMARK    6  A    between atoms: C10_11  and  C11_12
REMARK    7  A    between atoms: C15_17  and  C16_18
REMARK                            x       y       z     vdW  Elec       q    Type
REMARK                         _______ _______ _______ _____ _____    ______ ____
ROOT
ATOM      1  C5  UNL     1       0.917  -1.217  -0.399  0.00  0.00    +0.000 C 
ATOM      2  C6  UNL     1       1.385  -2.229  -1.474  0.00  0.00    +0.000 C 
ATOM      3  C7  UNL     1       1.476  -3.642  -0.895  0.00  0.00    +0.000 C 
ATOM      4  C8  UNL     1       0.336  -2.148  -2.588  0.00  0.00    +0.000 C 
ATOM      5  C9  UNL     1      -0.949  -1.763  -1.871  0.00  0.00    +0.000 C 
ATOM      6  C10 UNL     1      -0.474  -0.718  -0.856  0.00  0.00    +0.000 C 
ENDROOT
BRANCH   6   7
ATOM      7  C11 UNL     1      -1.438  -0.476   0.288  0.00  0.00    +0.000 C 
ATOM      8  C12 UNL     1      -1.828  -1.536   1.115  0.00  0.00    +0.000 C 
ATOM      9  N1  UNL     1      -2.632  -1.423   2.192  0.00  0.00    +0.000 NA
ATOM     10  C13 UNL     1      -3.083  -0.189   2.471  0.00  0.00    +0.000 C 
ATOM     11  C14 UNL     1      -2.767   0.930   1.718  0.00  0.00    +0.000 C 
ATOM     12  C15 UNL     1      -1.940   0.811   0.588  0.00  0.00    +0.000 C 
BRANCH  12  13
ATOM     13  C16 UNL     1      -1.593   2.045  -0.223  0.00  0.00    +0.000 C 
ATOM     14  C17 UNL     1      -2.646   3.081  -0.554  0.00  0.00    +0.000 C 
ATOM     15  C18 UNL     1      -2.124   2.186  -1.633  0.00  0.00    +0.000 C 
ENDBRANCH  12  13
ENDBRANCH   6   7
BRANCH   1  16
ATOM     16  C4  UNL     1       1.861  -0.023  -0.285  0.00  0.00    +0.000 C 
ATOM     17  O1  UNL     1       2.385   0.482  -1.278  0.00  0.00    +0.000 OA
BRANCH  16  18
ATOM     18  C3  UNL     1       2.092   0.517   1.117  0.00  0.00    +0.000 C 
BRANCH  18  20
ATOM     19  C1  UNL     1       3.035   2.377   2.525  0.00  0.00    +0.000 C 
ATOM     20  C2  UNL     1       2.849   1.841   1.115  0.00  0.00    +0.000 C 
ENDBRANCH  18  20
ENDBRANCH  16  18
ENDBRANCH   1  16
TORSDOF 5
