REMARK  Name = ligantes_elite\Elite_077.pdb
REMARK  4 active torsions:
REMARK  status: ('A' for Active; 'I' for Inactive)
REMARK    1  A    between atoms: C1_1  and  C2_2
REMARK    2  A    between atoms: C5_5  and  C6_6
REMARK    3  A    between atoms: C11_13  and  C12_14
REMARK    4  A    between atoms: C12_14  and  C13_16
REMARK                            x       y       z     vdW  Elec       q    Type
REMARK                         _______ _______ _______ _____ _____    ______ ____
ROOT
ATOM      1  C1  UNL     1      -2.102  -2.524   0.143  0.00  0.00    +0.000 C 
ATOM      2  C2  UNL     1      -0.967  -1.573  -0.244  0.00  0.00    +0.000 C 
ATOM      3  C3  UNL     1       0.277  -2.368  -0.679  0.00  0.00    +0.000 C 
ATOM      4  C4  UNL     1       1.323  -2.129   0.403  0.00  0.00    +0.000 C 
ATOM      5  C5  UNL     1       1.031  -0.717   0.922  0.00  0.00    +0.000 C 
ATOM      6  C11 UNL     1      -0.516  -0.696   0.948  0.00  0.00    +0.000 C 
ENDROOT
BRANCH   5   7
ATOM      7  C6  UNL     1       1.773   0.323   0.110  0.00  0.00    +0.000 C 
ATOM      8  C7  UNL     1       1.355   0.819  -1.116  0.00  0.00    +0.000 C 
ATOM      9  N1  UNL     1       2.027   1.742  -1.845  0.00  0.00    +0.000 NA
ATOM     10  C8  UNL     1       3.185   2.207  -1.333  0.00  0.00    +0.000 C 
ATOM     11  C9  UNL     1       3.708   1.780  -0.132  0.00  0.00    +0.000 C 
ATOM     12  C10 UNL     1       2.988   0.830   0.577  0.00  0.00    +0.000 C 
ATOM     13  F1  UNL     1       3.494   0.387   1.738  0.00  0.00    +0.000 F 
ENDBRANCH   5   7
BRANCH   6  14
ATOM     14  C12 UNL     1      -1.085   0.712   1.083  0.00  0.00    +0.000 C 
ATOM     15  O1  UNL     1      -0.582   1.541   1.837  0.00  0.00    +0.000 OA
BRANCH  14  16
ATOM     16  C13 UNL     1      -2.318   1.057   0.319  0.00  0.00    +0.000 C 
ATOM     17  C14 UNL     1      -2.225   1.986  -0.870  0.00  0.00    +0.000 C 
ATOM     18  C15 UNL     1      -2.900   2.452   0.385  0.00  0.00    +0.000 C 
ENDBRANCH  14  16
ENDBRANCH   6  14
TORSDOF 3
