REMARK  Name = ligantes_elite\Elite_096.pdb
REMARK  4 active torsions:
REMARK  status: ('A' for Active; 'I' for Inactive)
REMARK    1  A    between atoms: C1_1  and  O1_2
REMARK    2  A    between atoms: O1_2  and  C2_3
REMARK    3  A    between atoms: C2_3  and  C3_5
REMARK    4  A    between atoms: C7_10  and  C8_11
REMARK                            x       y       z     vdW  Elec       q    Type
REMARK                         _______ _______ _______ _____ _____    ______ ____
ROOT
ATOM      1  C3  UNL     1       0.844  -0.875   0.023  0.00  0.00    +0.000 C 
ATOM      2  C4  UNL     1       0.988  -2.371   0.238  0.00  0.00    +0.000 C 
ATOM      3  F1  UNL     1       1.974  -2.869  -0.545  0.00  0.00    +0.000 F 
ATOM      4  C5  UNL     1      -0.353  -2.930  -0.202  0.00  0.00    +0.000 C 
ATOM      5  C6  UNL     1      -1.376  -1.908   0.284  0.00  0.00    +0.000 C 
ATOM      6  C7  UNL     1      -0.601  -0.586   0.464  0.00  0.00    +0.000 C 
ENDROOT
BRANCH   6   7
ATOM      7  C8  UNL     1      -1.227   0.642  -0.161  0.00  0.00    +0.000 C 
ATOM      8  C9  UNL     1      -1.524   1.716   0.686  0.00  0.00    +0.000 C 
ATOM      9  N1  UNL     1      -2.074   2.889   0.298  0.00  0.00    +0.000 NA
ATOM     10  C10 UNL     1      -2.353   3.025  -1.009  0.00  0.00    +0.000 C 
ATOM     11  C11 UNL     1      -2.104   2.041  -1.944  0.00  0.00    +0.000 C 
ATOM     12  C12 UNL     1      -1.535   0.840  -1.514  0.00  0.00    +0.000 C 
ATOM     13 BR1  UNL     1      -1.220  -0.450  -2.872  0.00  0.00    +0.000 Br
ENDBRANCH   6   7
BRANCH   1  14
ATOM     14  C2  UNL     1       1.825  -0.128   0.888  0.00  0.00    +0.000 C 
ATOM     15  O2  UNL     1       2.029  -0.366   2.070  0.00  0.00    +0.000 OA
BRANCH  14  17
ATOM     16  C1  UNL     1       3.329   1.668   0.935  0.00  0.00    +0.000 C 
ATOM     17  O1  UNL     1       2.404   0.881   0.182  0.00  0.00    +0.000 OA
ENDBRANCH  14  17
ENDBRANCH   1  14
TORSDOF 3
