REMARK  Name = ligantes_elite\Elite_107.pdb
REMARK  7 active torsions:
REMARK  status: ('A' for Active; 'I' for Inactive)
REMARK    1  A    between atoms: C1_1  and  C2_2
REMARK    2  A    between atoms: C2_2  and  C3_3
REMARK    3  A    between atoms: C2_2  and  C4_4
REMARK    4  A    between atoms: C4_4  and  C5_6
REMARK    5  A    between atoms: C6_7  and  C7_8
REMARK    6  A    between atoms: C10_12  and  C11_13
REMARK    7  A    between atoms: C15_18  and  C16_19
REMARK                            x       y       z     vdW  Elec       q    Type
REMARK                         _______ _______ _______ _____ _____    ______ ____
ROOT
ATOM      1  C5  UNL     1      -0.428   0.662  -0.306  0.00  0.00    +0.000 C 
ATOM      2  C6  UNL     1      -0.668   2.001   0.428  0.00  0.00    +0.000 C 
ATOM      3  C8  UNL     1       0.397   2.090   1.517  0.00  0.00    +0.000 C 
ATOM      4  C9  UNL     1       0.775   0.647   1.813  0.00  0.00    +0.000 C 
ATOM      5  C10 UNL     1       0.658  -0.107   0.478  0.00  0.00    +0.000 C 
ENDROOT
BRANCH   5   6
ATOM      6  C11 UNL     1       1.954  -0.262  -0.317  0.00  0.00    +0.000 C 
ATOM      7  C12 UNL     1       2.931   0.735  -0.349  0.00  0.00    +0.000 C 
ATOM      8  N1  UNL     1       4.105   0.654  -1.018  0.00  0.00    +0.000 NA
ATOM      9  C13 UNL     1       4.333  -0.468  -1.719  0.00  0.00    +0.000 C 
ATOM     10  C14 UNL     1       3.436  -1.517  -1.781  0.00  0.00    +0.000 C 
ATOM     11  C15 UNL     1       2.221  -1.422  -1.083  0.00  0.00    +0.000 C 
BRANCH  11  12
ATOM     12  C16 UNL     1       1.261  -2.582  -1.163  0.00  0.00    +0.000 C 
ATOM     13  F2  UNL     1      -0.011  -2.191  -1.450  0.00  0.00    +0.000 F 
ATOM     14  F3  UNL     1       1.180  -3.269   0.011  0.00  0.00    +0.000 F 
ENDBRANCH  11  12
ENDBRANCH   5   6
BRANCH   1  15
ATOM     15  C4  UNL     1      -1.779  -0.043  -0.495  0.00  0.00    +0.000 C 
ATOM     16  O1  UNL     1      -2.458   0.244  -1.490  0.00  0.00    +0.000 OA
BRANCH  15  18
ATOM     17  C1  UNL     1      -3.371  -0.200   1.442  0.00  0.00    +0.000 C 
ATOM     18  C2  UNL     1      -2.358  -0.957   0.588  0.00  0.00    +0.000 C 
ATOM     19  C3  UNL     1      -3.021  -2.170  -0.065  0.00  0.00    +0.000 C 
ENDBRANCH  15  18
ENDBRANCH   1  15
BRANCH   2  20
ATOM     20  C7  UNL     1      -0.623   3.191  -0.523  0.00  0.00    +0.000 C 
ATOM     21  F1  UNL     1       0.607   3.256  -1.099  0.00  0.00    +0.000 F 
ENDBRANCH   2  20
TORSDOF 5
