REMARK  Name = ligantes_elite\Elite_131.pdb
REMARK  5 active torsions:
REMARK  status: ('A' for Active; 'I' for Inactive)
REMARK    1  A    between atoms: C1_1  and  O1_2
REMARK    2  A    between atoms: O1_2  and  C2_3
REMARK    3  A    between atoms: C2_3  and  C3_5
REMARK    4  A    between atoms: C4_6  and  O3_7
REMARK    5  A    between atoms: C7_10  and  C8_11
REMARK                            x       y       z     vdW  Elec       q    Type
REMARK                         _______ _______ _______ _____ _____    ______ ____
ROOT
ATOM      1  C3  UNL     1       0.787   0.525   0.039  0.00  0.00    +0.000 C 
ATOM      2  C4  UNL     1       1.152   1.972   0.374  0.00  0.00    +0.000 C 
ATOM      3  C5  UNL     1      -0.091   2.485   1.089  0.00  0.00    +0.000 C 
ATOM      4  C6  UNL     1      -1.239   1.903   0.270  0.00  0.00    +0.000 C 
ATOM      5  C7  UNL     1      -0.737   0.534  -0.250  0.00  0.00    +0.000 C 
ENDROOT
BRANCH   5   6
ATOM      6  C8  UNL     1      -1.429  -0.669   0.371  0.00  0.00    +0.000 C 
ATOM      7  C9  UNL     1      -1.709  -0.705   1.739  0.00  0.00    +0.000 C 
ATOM      8  N1  UNL     1      -2.296  -1.737   2.387  0.00  0.00    +0.000 NA
ATOM      9  C10 UNL     1      -2.633  -2.810   1.647  0.00  0.00    +0.000 C 
ATOM     10  C11 UNL     1      -2.400  -2.899   0.289  0.00  0.00    +0.000 C 
ATOM     11  C12 UNL     1      -1.786  -1.820  -0.349  0.00  0.00    +0.000 C 
ATOM     12 BR1  UNL     1      -1.464  -2.027  -2.211  0.00  0.00    +0.000 Br
ENDBRANCH   5   6
BRANCH   1  13
ATOM     13  C2  UNL     1       1.610   0.010  -1.116  0.00  0.00    +0.000 C 
ATOM     14  O2  UNL     1       1.320   0.160  -2.298  0.00  0.00    +0.000 OA
BRANCH  13  16
ATOM     15  C1  UNL     1       3.578  -1.120  -1.684  0.00  0.00    +0.000 C 
ATOM     16  O1  UNL     1       2.729  -0.616  -0.652  0.00  0.00    +0.000 OA
ENDBRANCH  13  16
ENDBRANCH   1  13
BRANCH   2  17
ATOM     17  O3  UNL     1       1.402   2.790  -0.763  0.00  0.00    +0.000 OA
ATOM     18  H   UNL     1       0.615   2.806  -1.329  0.00  0.00    +0.000 HD
ENDBRANCH   2  17
TORSDOF 4
