REMARK  Name = ligantes_elite\Elite_136.pdb
REMARK  7 active torsions:
REMARK  status: ('A' for Active; 'I' for Inactive)
REMARK    1  A    between atoms: C1_1  and  C2_2
REMARK    2  A    between atoms: C2_2  and  C3_3
REMARK    3  A    between atoms: C3_3  and  C4_4
REMARK    4  A    between atoms: C4_4  and  C5_6
REMARK    5  A    between atoms: C6_7  and  C7_8
REMARK    6  A    between atoms: C10_11  and  C11_12
REMARK    7  A    between atoms: C15_17  and  C16_18
REMARK                            x       y       z     vdW  Elec       q    Type
REMARK                         _______ _______ _______ _____ _____    ______ ____
ROOT
ATOM      1  C5  UNL     1      -0.077  -1.429   0.384  0.00  0.00    +0.000 C 
ATOM      2  C6  UNL     1      -0.322  -1.884  -1.057  0.00  0.00    +0.000 C 
ATOM      3  C7  UNL     1      -1.503  -2.838  -1.200  0.00  0.00    +0.000 C 
ATOM      4  C8  UNL     1       0.999  -2.564  -1.421  0.00  0.00    +0.000 C 
ATOM      5  C9  UNL     1       2.085  -1.719  -0.761  0.00  0.00    +0.000 C 
ATOM      6  C10 UNL     1       1.416  -1.012   0.436  0.00  0.00    +0.000 C 
ENDROOT
BRANCH   6   7
ATOM      7  C11 UNL     1       1.730   0.462   0.645  0.00  0.00    +0.000 C 
ATOM      8  C12 UNL     1       1.915   0.865   1.980  0.00  0.00    +0.000 C 
ATOM      9  N1  UNL     1       2.209   2.117   2.395  0.00  0.00    +0.000 NA
ATOM     10  C13 UNL     1       2.313   3.054   1.442  0.00  0.00    +0.000 C 
ATOM     11  C14 UNL     1       2.135   2.788   0.098  0.00  0.00    +0.000 C 
ATOM     12  C15 UNL     1       1.828   1.480  -0.326  0.00  0.00    +0.000 C 
BRANCH  12  13
ATOM     13  C16 UNL     1       1.665   1.294  -1.811  0.00  0.00    +0.000 C 
ATOM     14  F1  UNL     1       1.208   2.416  -2.442  0.00  0.00    +0.000 F 
ENDBRANCH  12  13
ENDBRANCH   6   7
BRANCH   1  15
ATOM     15  C4  UNL     1      -1.055  -0.421   0.981  0.00  0.00    +0.000 C 
ATOM     16  O1  UNL     1      -1.226  -0.413   2.203  0.00  0.00    +0.000 OA
BRANCH  15  17
ATOM     17  C3  UNL     1      -1.766   0.560   0.061  0.00  0.00    +0.000 C 
BRANCH  17  19
ATOM     18  C1  UNL     1      -3.855   1.180   1.367  0.00  0.00    +0.000 C 
ATOM     19  C2  UNL     1      -2.525   1.660   0.803  0.00  0.00    +0.000 C 
ENDBRANCH  17  19
ENDBRANCH  15  17
ENDBRANCH   1  15
TORSDOF 5
