REMARK  Name = ligantes_elite\Elite_029.pdb
REMARK  7 active torsions:
REMARK  status: ('A' for Active; 'I' for Inactive)
REMARK    1  A    between atoms: C1_1  and  C2_2
REMARK    2  A    between atoms: C2_2  and  C3_3
REMARK    3  A    between atoms: C3_3  and  C4_4
REMARK    4  A    between atoms: C4_4  and  C5_6
REMARK    5  A    between atoms: C6_7  and  C7_8
REMARK    6  A    between atoms: C10_11  and  C11_12
REMARK    7  A    between atoms: C15_17  and  C16_18
REMARK                            x       y       z     vdW  Elec       q    Type
REMARK                         _______ _______ _______ _____ _____    ______ ____
ROOT
ATOM      1  C5  UNL     1      -0.245  -1.400   0.239  0.00  0.00    +0.000 C 
ATOM      2  C6  UNL     1      -0.153  -2.453  -0.890  0.00  0.00    +0.000 C 
ATOM      3  C7  UNL     1      -0.617  -3.830  -0.419  0.00  0.00    +0.000 C 
ATOM      4  C8  UNL     1       1.318  -2.464  -1.335  0.00  0.00    +0.000 C 
ATOM      5  C9  UNL     1       2.063  -1.572  -0.348  0.00  0.00    +0.000 C 
ATOM      6  C10 UNL     1       1.028  -0.538   0.115  0.00  0.00    +0.000 C 
ENDROOT
BRANCH   6   7
ATOM      7  C11 UNL     1       1.039   0.691  -0.783  0.00  0.00    +0.000 C 
ATOM      8  C12 UNL     1       0.271   0.776  -1.946  0.00  0.00    +0.000 C 
ATOM      9  N1  UNL     1       0.260   1.832  -2.792  0.00  0.00    +0.000 NA
ATOM     10  C13 UNL     1       1.047   2.876  -2.481  0.00  0.00    +0.000 C 
ATOM     11  C14 UNL     1       1.857   2.906  -1.363  0.00  0.00    +0.000 C 
ATOM     12  C15 UNL     1       1.869   1.802  -0.496  0.00  0.00    +0.000 C 
BRANCH  12  13
ATOM     13  C16 UNL     1       2.772   1.853   0.714  0.00  0.00    +0.000 C 
ATOM     14  F1  UNL     1       3.519   2.992   0.790  0.00  0.00    +0.000 F 
ATOM     15  F2  UNL     1       2.077   1.798   1.885  0.00  0.00    +0.000 F 
ENDBRANCH  12  13
ENDBRANCH   6   7
BRANCH   1  16
ATOM     16  C4  UNL     1      -1.554  -0.615   0.286  0.00  0.00    +0.000 C 
ATOM     17  O1  UNL     1      -2.444  -0.803  -0.544  0.00  0.00    +0.000 OA
BRANCH  16  18
ATOM     18  C3  UNL     1      -1.719   0.362   1.441  0.00  0.00    +0.000 C 
BRANCH  18  20
ATOM     19  C1  UNL     1      -3.198   2.068   2.557  0.00  0.00    +0.000 C 
ATOM     20  C2  UNL     1      -3.059   1.093   1.399  0.00  0.00    +0.000 C 
ENDBRANCH  18  20
ENDBRANCH  16  18
ENDBRANCH   1  16
TORSDOF 5
