REMARK  Name = ligantes_elite\Elite_038.pdb
REMARK  7 active torsions:
REMARK  status: ('A' for Active; 'I' for Inactive)
REMARK    1  A    between atoms: C1_1  and  C2_2
REMARK    2  A    between atoms: C2_2  and  C3_3
REMARK    3  A    between atoms: C2_2  and  C4_4
REMARK    4  A    between atoms: C4_4  and  C5_6
REMARK    5  A    between atoms: C6_7  and  C7_8
REMARK    6  A    between atoms: C10_11  and  C11_12
REMARK    7  A    between atoms: C15_17  and  C16_18
REMARK                            x       y       z     vdW  Elec       q    Type
REMARK                         _______ _______ _______ _____ _____    ______ ____
ROOT
ATOM      1  C5  UNL     1       0.389   0.409   0.567  0.00  0.00    +0.000 C 
ATOM      2  C6  UNL     1       0.957   1.839   0.382  0.00  0.00    +0.000 C 
ATOM      3  C7  UNL     1       0.492   2.779   1.495  0.00  0.00    +0.000 C 
ATOM      4  C8  UNL     1       0.459   2.307  -0.992  0.00  0.00    +0.000 C 
ATOM      5  C9  UNL     1      -0.811   1.506  -1.242  0.00  0.00    +0.000 C 
ATOM      6  C10 UNL     1      -0.456   0.122  -0.692  0.00  0.00    +0.000 C 
ENDROOT
BRANCH   6   7
ATOM      7  C11 UNL     1      -1.623  -0.830  -0.515  0.00  0.00    +0.000 C 
ATOM      8  C12 UNL     1      -1.551  -2.056  -1.196  0.00  0.00    +0.000 C 
ATOM      9  N1  UNL     1      -2.494  -3.024  -1.181  0.00  0.00    +0.000 NA
ATOM     10  C13 UNL     1      -3.593  -2.776  -0.452  0.00  0.00    +0.000 C 
ATOM     11  C14 UNL     1      -3.780  -1.608   0.264  0.00  0.00    +0.000 C 
ATOM     12  C15 UNL     1      -2.783  -0.614   0.255  0.00  0.00    +0.000 C 
BRANCH  12  13
ATOM     13  C16 UNL     1      -3.086   0.635   1.037  0.00  0.00    +0.000 C 
ATOM     14  F1  UNL     1      -3.835   1.522   0.325  0.00  0.00    +0.000 F 
ENDBRANCH  12  13
ENDBRANCH   6   7
BRANCH   1  15
ATOM     15  C4  UNL     1       1.480  -0.638   0.797  0.00  0.00    +0.000 C 
ATOM     16  O1  UNL     1       1.426  -1.367   1.791  0.00  0.00    +0.000 OA
BRANCH  15  18
ATOM     17  C1  UNL     1       3.950  -0.473   0.484  0.00  0.00    +0.000 C 
ATOM     18  C2  UNL     1       2.622  -0.772  -0.208  0.00  0.00    +0.000 C 
ATOM     19  C3  UNL     1       2.628  -2.176  -0.804  0.00  0.00    +0.000 C 
ENDBRANCH  15  18
ENDBRANCH   1  15
TORSDOF 4
