REMARK  Name = ligantes_elite\Elite_151.pdb
REMARK  6 active torsions:
REMARK  status: ('A' for Active; 'I' for Inactive)
REMARK    1  A    between atoms: C1_1  and  C2_2
REMARK    2  A    between atoms: C2_2  and  C3_3
REMARK    3  A    between atoms: C3_3  and  C4_5
REMARK    4  A    between atoms: C5_6  and  C6_7
REMARK    5  A    between atoms: C9_11  and  C10_12
REMARK    6  A    between atoms: C14_17  and  C15_18
REMARK                            x       y       z     vdW  Elec       q    Type
REMARK                         _______ _______ _______ _____ _____    ______ ____
ROOT
ATOM      1  C4  UNL     1       0.702  -0.335  -0.566  0.00  0.00    +0.000 C 
ATOM      2  C5  UNL     1       1.337  -1.714  -0.828  0.00  0.00    +0.000 C 
ATOM      3  C7  UNL     1       0.374  -2.737  -0.219  0.00  0.00    +0.000 C 
ATOM      4  C8  UNL     1      -0.940  -1.990   0.026  0.00  0.00    +0.000 C 
ATOM      5  C9  UNL     1      -0.811  -0.648  -0.712  0.00  0.00    +0.000 C 
ENDROOT
BRANCH   5   6
ATOM      6  C10 UNL     1      -1.749   0.506  -0.413  0.00  0.00    +0.000 C 
ATOM      7  C11 UNL     1      -1.539   1.693  -1.127  0.00  0.00    +0.000 C 
ATOM      8  N1  UNL     1      -2.252   2.832  -0.989  0.00  0.00    +0.000 NA
ATOM      9  C12 UNL     1      -3.268   2.812  -0.112  0.00  0.00    +0.000 C 
ATOM     10  C13 UNL     1      -3.607   1.692   0.618  0.00  0.00    +0.000 C 
ATOM     11  C14 UNL     1      -2.851   0.519   0.459  0.00  0.00    +0.000 C 
BRANCH  11  12
ATOM     12  C15 UNL     1      -3.312  -0.621   1.199  0.00  0.00    +0.000 C 
ATOM     13  N2  UNL     1      -3.736  -1.522   1.796  0.00  0.00    +0.000 NA
ENDBRANCH  11  12
ENDBRANCH   5   6
BRANCH   1  14
ATOM     14  C3  UNL     1       1.054   0.244   0.808  0.00  0.00    +0.000 C 
ATOM     15  O1  UNL     1       0.973  -0.432   1.835  0.00  0.00    +0.000 OA
BRANCH  14  17
ATOM     16  C1  UNL     1       2.970   1.820   0.465  0.00  0.00    +0.000 C 
ATOM     17  C2  UNL     1       1.517   1.686   0.872  0.00  0.00    +0.000 C 
ENDBRANCH  14  17
ENDBRANCH   1  14
BRANCH   2  18
ATOM     18  C6  UNL     1       2.774  -1.880  -0.368  0.00  0.00    +0.000 C 
ATOM     19  F1  UNL     1       3.528  -0.924  -0.977  0.00  0.00    +0.000 F 
ENDBRANCH   2  18
TORSDOF 5
