REMARK  Name = ligantes_elite\Elite_089.pdb
REMARK  6 active torsions:
REMARK  status: ('A' for Active; 'I' for Inactive)
REMARK    1  A    between atoms: C1_1  and  O1_2
REMARK    2  A    between atoms: O1_2  and  C2_3
REMARK    3  A    between atoms: C2_3  and  C3_5
REMARK    4  A    between atoms: C4_6  and  O3_7
REMARK    5  A    between atoms: C7_10  and  C8_11
REMARK    6  A    between atoms: C12_16  and  C13_17
REMARK                            x       y       z     vdW  Elec       q    Type
REMARK                         _______ _______ _______ _____ _____    ______ ____
ROOT
ATOM      1  C3  UNL     1       1.031  -0.611  -1.077  0.00  0.00    +0.000 C 
ATOM      2  C4  UNL     1       1.865  -1.485  -0.144  0.00  0.00    +0.000 C 
ATOM      3  C5  UNL     1       1.045  -2.761   0.053  0.00  0.00    +0.000 C 
ATOM      4  C6  UNL     1      -0.370  -2.460  -0.445  0.00  0.00    +0.000 C 
ATOM      5  C7  UNL     1      -0.432  -0.951  -0.739  0.00  0.00    +0.000 C 
ENDROOT
BRANCH   5   6
ATOM      6  C8  UNL     1      -1.077  -0.132   0.373  0.00  0.00    +0.000 C 
ATOM      7  C9  UNL     1      -0.737  -0.326   1.716  0.00  0.00    +0.000 C 
ATOM      8  N1  UNL     1      -1.239   0.374   2.757  0.00  0.00    +0.000 NA
ATOM      9  C10 UNL     1      -2.140   1.328   2.466  0.00  0.00    +0.000 C 
ATOM     10  C11 UNL     1      -2.560   1.609   1.180  0.00  0.00    +0.000 C 
ATOM     11  C12 UNL     1      -2.032   0.875   0.107  0.00  0.00    +0.000 C 
BRANCH  11  12
ATOM     12  C13 UNL     1      -2.523   1.199  -1.285  0.00  0.00    +0.000 C 
ATOM     13  F1  UNL     1      -3.481   2.172  -1.307  0.00  0.00    +0.000 F 
ENDBRANCH  11  12
ENDBRANCH   5   6
BRANCH   1  14
ATOM     14  C2  UNL     1       1.309   0.874  -1.036  0.00  0.00    +0.000 C 
ATOM     15  O2  UNL     1       0.885   1.645  -1.891  0.00  0.00    +0.000 OA
BRANCH  14  17
ATOM     16  C1  UNL     1       2.229   2.659   0.166  0.00  0.00    +0.000 C 
ATOM     17  O1  UNL     1       2.012   1.251   0.062  0.00  0.00    +0.000 OA
ENDBRANCH  14  17
ENDBRANCH   1  14
BRANCH   2  18
ATOM     18  O3  UNL     1       3.112  -1.801  -0.749  0.00  0.00    +0.000 OA
ATOM     19  H   UNL     1       2.957  -2.251  -1.594  0.00  0.00    +0.000 HD
ENDBRANCH   2  18
TORSDOF 5
