REMARK  Name = ligantes_elite\Elite_076.pdb
REMARK  5 active torsions:
REMARK  status: ('A' for Active; 'I' for Inactive)
REMARK    1  A    between atoms: C1_1  and  O1_2
REMARK    2  A    between atoms: O1_2  and  C2_3
REMARK    3  A    between atoms: C2_3  and  C3_5
REMARK    4  A    between atoms: C7_10  and  C8_11
REMARK    5  A    between atoms: C12_16  and  C13_17
REMARK                            x       y       z     vdW  Elec       q    Type
REMARK                         _______ _______ _______ _____ _____    ______ ____
ROOT
ATOM      1  C3  UNL     1       1.048  -0.932   0.459  0.00  0.00    +0.000 C 
ATOM      2  C4  UNL     1       1.556  -2.368   0.381  0.00  0.00    +0.000 C 
ATOM      3  F1  UNL     1       1.550  -2.883   1.645  0.00  0.00    +0.000 F 
ATOM      4  C5  UNL     1       0.544  -3.156  -0.447  0.00  0.00    +0.000 C 
ATOM      5  C6  UNL     1      -0.545  -2.160  -0.835  0.00  0.00    +0.000 C 
ATOM      6  C7  UNL     1      -0.469  -1.063   0.242  0.00  0.00    +0.000 C 
ENDROOT
BRANCH   6   7
ATOM      7  C8  UNL     1      -1.223   0.231  -0.010  0.00  0.00    +0.000 C 
ATOM      8  C9  UNL     1      -1.814   0.497  -1.249  0.00  0.00    +0.000 C 
ATOM      9  N1  UNL     1      -2.491   1.625  -1.565  0.00  0.00    +0.000 NA
ATOM     10  C10 UNL     1      -2.611   2.553  -0.602  0.00  0.00    +0.000 C 
ATOM     11  C11 UNL     1      -2.079   2.403   0.663  0.00  0.00    +0.000 C 
ATOM     12  C12 UNL     1      -1.379   1.227   0.984  0.00  0.00    +0.000 C 
BRANCH  12  13
ATOM     13  C13 UNL     1      -0.797   1.124   2.376  0.00  0.00    +0.000 C 
ATOM     14  F2  UNL     1      -1.394   1.966   3.269  0.00  0.00    +0.000 F 
ATOM     15  F3  UNL     1      -0.910  -0.116   2.923  0.00  0.00    +0.000 F 
ENDBRANCH  12  13
ENDBRANCH   6   7
BRANCH   1  16
ATOM     16  C2  UNL     1       1.724  -0.090  -0.598  0.00  0.00    +0.000 C 
ATOM     17  O2  UNL     1       2.100  -0.503  -1.686  0.00  0.00    +0.000 OA
BRANCH  16  19
ATOM     18  C1  UNL     1       2.396   2.088  -1.132  0.00  0.00    +0.000 C 
ATOM     19  O1  UNL     1       1.829   1.199  -0.168  0.00  0.00    +0.000 OA
ENDBRANCH  16  19
ENDBRANCH   1  16
TORSDOF 4
