REMARK  Name = ligantes_elite\Elite_025.pdb
REMARK  6 active torsions:
REMARK  status: ('A' for Active; 'I' for Inactive)
REMARK    1  A    between atoms: C1_1  and  C2_2
REMARK    2  A    between atoms: C2_2  and  C3_3
REMARK    3  A    between atoms: C3_3  and  C4_5
REMARK    4  A    between atoms: C5_6  and  C6_7
REMARK    5  A    between atoms: C9_11  and  C10_12
REMARK    6  A    between atoms: C14_17  and  C15_18
REMARK                            x       y       z     vdW  Elec       q    Type
REMARK                         _______ _______ _______ _____ _____    ______ ____
ROOT
ATOM      1  C4  UNL     1      -1.593  -0.562  -0.001  0.00  0.00    +0.000 C 
ATOM      2  C5  UNL     1      -1.844  -2.085  -0.103  0.00  0.00    +0.000 C 
ATOM      3  C7  UNL     1      -0.748  -2.750   0.738  0.00  0.00    +0.000 C 
ATOM      4  C8  UNL     1      -0.063  -1.615   1.493  0.00  0.00    +0.000 C 
ATOM      5  C9  UNL     1      -0.162  -0.400   0.554  0.00  0.00    +0.000 C 
ENDROOT
BRANCH   5   6
ATOM      6  C10 UNL     1       1.056  -0.338  -0.357  0.00  0.00    +0.000 C 
ATOM      7  C11 UNL     1       1.109  -1.008  -1.582  0.00  0.00    +0.000 C 
ATOM      8  N1  UNL     1       2.187  -1.057  -2.397  0.00  0.00    +0.000 NA
ATOM      9  C12 UNL     1       3.285  -0.410  -1.981  0.00  0.00    +0.000 C 
ATOM     10  C13 UNL     1       3.355   0.276  -0.783  0.00  0.00    +0.000 C 
ATOM     11  C14 UNL     1       2.234   0.337   0.063  0.00  0.00    +0.000 C 
BRANCH  11  12
ATOM     12  C15 UNL     1       2.339   1.053   1.400  0.00  0.00    +0.000 C 
ATOM     13  C16 UNL     1       3.185   2.297   1.571  0.00  0.00    +0.000 C 
ATOM     14  C17 UNL     1       1.694   2.410   1.575  0.00  0.00    +0.000 C 
ENDBRANCH  11  12
ENDBRANCH   5   6
BRANCH   1  15
ATOM     15  C3  UNL     1      -1.927   0.200  -1.280  0.00  0.00    +0.000 C 
ATOM     16  O1  UNL     1      -1.770  -0.297  -2.396  0.00  0.00    +0.000 OA
BRANCH  15  18
ATOM     17  C1  UNL     1      -1.492   2.598  -0.632  0.00  0.00    +0.000 C 
ATOM     18  C2  UNL     1      -2.504   1.596  -1.144  0.00  0.00    +0.000 C 
ENDBRANCH  15  18
ENDBRANCH   1  15
BRANCH   2  19
ATOM     19  C6  UNL     1      -3.241  -2.449   0.389  0.00  0.00    +0.000 C 
ATOM     20  F1  UNL     1      -4.158  -1.728  -0.308  0.00  0.00    +0.000 F 
ENDBRANCH   2  19
TORSDOF 5
