REMARK  Name = ligantes_elite\Elite_169.pdb
REMARK  4 active torsions:
REMARK  status: ('A' for Active; 'I' for Inactive)
REMARK    1  A    between atoms: C1_2  and  C2_4
REMARK    2  A    between atoms: C2_4  and  C3_6
REMARK    3  A    between atoms: C4_7  and  O3_8
REMARK    4  A    between atoms: C7_11  and  C8_12
REMARK                            x       y       z     vdW  Elec       q    Type
REMARK                         _______ _______ _______ _____ _____    ______ ____
ROOT
ATOM      1  C3  UNL     1       0.843  -0.655  -0.256  0.00  0.00    +0.000 C 
ATOM      2  C4  UNL     1       1.148  -1.841  -1.168  0.00  0.00    +0.000 C 
ATOM      3  C5  UNL     1      -0.202  -2.533  -1.314  0.00  0.00    +0.000 C 
ATOM      4  C6  UNL     1      -1.225  -1.402  -1.368  0.00  0.00    +0.000 C 
ATOM      5  C7  UNL     1      -0.525  -0.169  -0.765  0.00  0.00    +0.000 C 
ENDROOT
BRANCH   5   6
ATOM      6  C8  UNL     1      -1.337   0.657   0.210  0.00  0.00    +0.000 C 
ATOM      7  C9  UNL     1      -1.572   1.993  -0.142  0.00  0.00    +0.000 C 
ATOM      8  N2  UNL     1      -2.258   2.894   0.596  0.00  0.00    +0.000 NA
ATOM      9  C10 UNL     1      -2.749   2.463   1.770  0.00  0.00    +0.000 C 
ATOM     10  C11 UNL     1      -2.589   1.170   2.229  0.00  0.00    +0.000 C 
ATOM     11  C12 UNL     1      -1.879   0.257   1.440  0.00  0.00    +0.000 C 
ATOM     12  I1  UNL     1      -1.731  -1.672   2.263  0.00  0.00    +0.000 I 
ENDBRANCH   5   6
BRANCH   1  13
ATOM     13  C2  UNL     1       1.887   0.423  -0.422  0.00  0.00    +0.000 C 
ATOM     14  O2  UNL     1       2.308   0.822  -1.507  0.00  0.00    +0.000 OA
BRANCH  13  16
ATOM     15  N1  UNL     1       3.455   1.943   0.660  0.00  0.00    +0.000 N 
ATOM     16  C1  UNL     1       2.401   1.094   0.857  0.00  0.00    +0.000 C 
ATOM     17  O1  UNL     1       1.892   0.890   1.945  0.00  0.00    +0.000 OA
ATOM     18  H   UNL     1       3.852   2.420   1.424  0.00  0.00    +0.000 HD
ATOM     19  H   UNL     1       3.816   2.077  -0.246  0.00  0.00    +0.000 HD
ENDBRANCH  13  16
ENDBRANCH   1  13
BRANCH   2  20
ATOM     20  O3  UNL     1       2.094  -2.705  -0.562  0.00  0.00    +0.000 OA
ATOM     21  H   UNL     1       1.758  -2.999   0.299  0.00  0.00    +0.000 HD
ENDBRANCH   2  20
TORSDOF 4
