REMARK  Name = ligantes_elite\Elite_071.pdb
REMARK  6 active torsions:
REMARK  status: ('A' for Active; 'I' for Inactive)
REMARK    1  A    between atoms: C1_1  and  O1_2
REMARK    2  A    between atoms: O1_2  and  C2_3
REMARK    3  A    between atoms: C2_3  and  C3_5
REMARK    4  A    between atoms: C4_6  and  C5_7
REMARK    5  A    between atoms: C8_11  and  C9_12
REMARK    6  A    between atoms: C13_17  and  C14_18
REMARK                            x       y       z     vdW  Elec       q    Type
REMARK                         _______ _______ _______ _____ _____    ______ ____
ROOT
ATOM      1  C3  UNL     1      -0.738  -0.651  -0.872  0.00  0.00    +0.000 C 
ATOM      2  C4  UNL     1      -1.910  -1.491  -0.325  0.00  0.00    +0.000 C 
ATOM      3  C6  UNL     1      -1.511  -1.794   1.120  0.00  0.00    +0.000 C 
ATOM      4  C7  UNL     1      -0.004  -1.988   1.060  0.00  0.00    +0.000 C 
ATOM      5  C8  UNL     1       0.501  -0.979   0.006  0.00  0.00    +0.000 C 
ENDROOT
BRANCH   5   6
ATOM      6  C9  UNL     1       1.262   0.220   0.549  0.00  0.00    +0.000 C 
ATOM      7  C10 UNL     1       0.959   0.767   1.800  0.00  0.00    +0.000 C 
ATOM      8  N1  UNL     1       1.559   1.849   2.342  0.00  0.00    +0.000 NA
ATOM      9  C11 UNL     1       2.522   2.438   1.612  0.00  0.00    +0.000 C 
ATOM     10  C12 UNL     1       2.902   1.999   0.358  0.00  0.00    +0.000 C 
ATOM     11  C13 UNL     1       2.269   0.876  -0.199  0.00  0.00    +0.000 C 
BRANCH  11  12
ATOM     12  C14 UNL     1       2.676   0.443  -1.590  0.00  0.00    +0.000 C 
ATOM     13  F2  UNL     1       3.068  -0.861  -1.643  0.00  0.00    +0.000 F 
ATOM     14  F3  UNL     1       3.729   1.153  -2.091  0.00  0.00    +0.000 F 
ENDBRANCH  11  12
ENDBRANCH   5   6
BRANCH   1  15
ATOM     15  C2  UNL     1      -1.065   0.829  -0.970  0.00  0.00    +0.000 C 
ATOM     16  O2  UNL     1      -0.662   1.531  -1.890  0.00  0.00    +0.000 OA
BRANCH  15  18
ATOM     17  C1  UNL     1      -2.022   2.677   0.101  0.00  0.00    +0.000 C 
ATOM     18  O1  UNL     1      -1.781   1.268   0.096  0.00  0.00    +0.000 OA
ENDBRANCH  15  18
ENDBRANCH   1  15
BRANCH   2  19
ATOM     19  C5  UNL     1      -2.116  -2.766  -1.141  0.00  0.00    +0.000 C 
ATOM     20  F1  UNL     1      -3.152  -3.466  -0.607  0.00  0.00    +0.000 F 
ENDBRANCH   2  19
TORSDOF 5
