REMARK  Name = ligantes_elite\Elite_056.pdb
REMARK  4 active torsions:
REMARK  status: ('A' for Active; 'I' for Inactive)
REMARK    1  A    between atoms: C1_2  and  C2_3
REMARK    2  A    between atoms: C1_2  and  C5_6
REMARK    3  A    between atoms: C6_7  and  O2_8
REMARK    4  A    between atoms: C9_11  and  C10_12
REMARK                            x       y       z     vdW  Elec       q    Type
REMARK                         _______ _______ _______ _____ _____    ______ ____
ROOT
ATOM      1  C5  UNL     1      -0.763  -0.371   0.574  0.00  0.00    +0.000 C 
ATOM      2  C6  UNL     1      -1.430  -1.748   0.437  0.00  0.00    +0.000 C 
ATOM      3  C7  UNL     1      -0.438  -2.621  -0.328  0.00  0.00    +0.000 C 
ATOM      4  C8  UNL     1       0.919  -2.047   0.054  0.00  0.00    +0.000 C 
ATOM      5  C9  UNL     1       0.674  -0.530   0.032  0.00  0.00    +0.000 C 
ENDROOT
BRANCH   5   6
ATOM      6  C10 UNL     1       1.698   0.286   0.792  0.00  0.00    +0.000 C 
ATOM      7  C11 UNL     1       2.023  -0.038   2.111  0.00  0.00    +0.000 C 
ATOM      8  N1  UNL     1       2.914   0.629   2.879  0.00  0.00    +0.000 NA
ATOM      9  C12 UNL     1       3.519   1.694   2.325  0.00  0.00    +0.000 C 
ATOM     10  C13 UNL     1       3.272   2.123   1.037  0.00  0.00    +0.000 C 
ATOM     11  C14 UNL     1       2.350   1.412   0.268  0.00  0.00    +0.000 C 
ATOM     12 BR1  UNL     1       2.038   2.067  -1.489  0.00  0.00    +0.000 Br
ENDBRANCH   5   6
BRANCH   1  14
ATOM     13  O1  UNL     1      -2.041   1.654   0.457  0.00  0.00    +0.000 OA
ATOM     14  C1  UNL     1      -1.557   0.702  -0.149  0.00  0.00    +0.000 C 
BRANCH  14  15
ATOM     15  C2  UNL     1      -1.770   0.564  -1.624  0.00  0.00    +0.000 C 
ATOM     16  C3  UNL     1      -3.055   1.053  -2.249  0.00  0.00    +0.000 C 
ATOM     17  C4  UNL     1      -1.774   1.795  -2.499  0.00  0.00    +0.000 C 
ENDBRANCH  14  15
ENDBRANCH   1  14
BRANCH   2  18
ATOM     18  O2  UNL     1      -1.617  -2.319   1.732  0.00  0.00    +0.000 OA
ATOM     19  H   UNL     1      -0.760  -2.388   2.182  0.00  0.00    +0.000 HD
ENDBRANCH   2  18
TORSDOF 4
