REMARK  Name = ligantes_elite\Elite_142.pdb
REMARK  6 active torsions:
REMARK  status: ('A' for Active; 'I' for Inactive)
REMARK    1  A    between atoms: C1_1  and  C2_2
REMARK    2  A    between atoms: C2_2  and  C3_3
REMARK    3  A    between atoms: C3_3  and  C4_5
REMARK    4  A    between atoms: C5_6  and  O2_7
REMARK    5  A    between atoms: C8_10  and  C9_11
REMARK    6  A    between atoms: C13_16  and  C14_17
REMARK                            x       y       z     vdW  Elec       q    Type
REMARK                         _______ _______ _______ _____ _____    ______ ____
ROOT
ATOM      1  C4  UNL     1       1.056  -0.931   0.388  0.00  0.00    +0.000 C 
ATOM      2  C5  UNL     1       1.692  -2.086  -0.405  0.00  0.00    +0.000 C 
ATOM      3  C6  UNL     1       0.534  -2.937  -0.928  0.00  0.00    +0.000 C 
ATOM      4  C7  UNL     1      -0.644  -1.973  -0.976  0.00  0.00    +0.000 C 
ATOM      5  C8  UNL     1      -0.469  -1.181   0.321  0.00  0.00    +0.000 C 
ENDROOT
BRANCH   5   6
ATOM      6  C9  UNL     1      -1.329   0.015   0.676  0.00  0.00    +0.000 C 
ATOM      7  C10 UNL     1      -1.359   0.356   2.040  0.00  0.00    +0.000 C 
ATOM      8  N1  UNL     1      -2.027   1.398   2.580  0.00  0.00    +0.000 NA
ATOM      9  C11 UNL     1      -2.736   2.154   1.728  0.00  0.00    +0.000 C 
ATOM     10  C12 UNL     1      -2.791   1.916   0.367  0.00  0.00    +0.000 C 
ATOM     11  C13 UNL     1      -2.076   0.836  -0.187  0.00  0.00    +0.000 C 
BRANCH  11  12
ATOM     12  C14 UNL     1      -2.184   0.645  -1.676  0.00  0.00    +0.000 C 
ATOM     13  F1  UNL     1      -2.843  -0.498  -2.012  0.00  0.00    +0.000 F 
ENDBRANCH  11  12
ENDBRANCH   5   6
BRANCH   1  14
ATOM     14  C3  UNL     1       1.464   0.396  -0.242  0.00  0.00    +0.000 C 
ATOM     15  O1  UNL     1       1.264   0.630  -1.435  0.00  0.00    +0.000 OA
BRANCH  14  17
ATOM     16  C1  UNL     1       2.402   2.729  -0.002  0.00  0.00    +0.000 C 
ATOM     17  C2  UNL     1       2.139   1.398   0.679  0.00  0.00    +0.000 C 
ENDBRANCH  14  17
ENDBRANCH   1  14
BRANCH   2  18
ATOM     18  O2  UNL     1       2.524  -2.858   0.453  0.00  0.00    +0.000 OA
ATOM     19  H   UNL     1       1.998  -3.199   1.193  0.00  0.00    +0.000 HD
ENDBRANCH   2  18
TORSDOF 5
