REMARK  Name = ligantes_elite\Elite_104.pdb
REMARK  7 active torsions:
REMARK  status: ('A' for Active; 'I' for Inactive)
REMARK    1  A    between atoms: C1_1  and  C2_2
REMARK    2  A    between atoms: C2_2  and  C3_3
REMARK    3  A    between atoms: C3_3  and  C4_4
REMARK    4  A    between atoms: C4_4  and  C5_6
REMARK    5  A    between atoms: C6_7  and  C7_8
REMARK    6  A    between atoms: C10_12  and  C11_13
REMARK    7  A    between atoms: C15_18  and  N2_19
REMARK                            x       y       z     vdW  Elec       q    Type
REMARK                         _______ _______ _______ _____ _____    ______ ____
ROOT
ATOM      1  C5  UNL     1       0.254  -0.654   0.401  0.00  0.00    +0.000 C 
ATOM      2  C6  UNL     1       0.633  -2.079   0.838  0.00  0.00    +0.000 C 
ATOM      3  C8  UNL     1      -0.474  -2.967   0.262  0.00  0.00    +0.000 C 
ATOM      4  C9  UNL     1      -1.706  -2.060   0.116  0.00  0.00    +0.000 C 
ATOM      5  C10 UNL     1      -1.273  -0.671   0.635  0.00  0.00    +0.000 C 
ENDROOT
BRANCH   5   6
ATOM      6  C11 UNL     1      -2.002   0.568   0.162  0.00  0.00    +0.000 C 
ATOM      7  C12 UNL     1      -2.751   0.580  -1.017  0.00  0.00    +0.000 C 
ATOM      8  N1  UNL     1      -3.375   1.667  -1.527  0.00  0.00    +0.000 NA
ATOM      9  C13 UNL     1      -3.222   2.821  -0.858  0.00  0.00    +0.000 C 
ATOM     10  C14 UNL     1      -2.497   2.931   0.314  0.00  0.00    +0.000 C 
ATOM     11  C15 UNL     1      -1.922   1.784   0.869  0.00  0.00    +0.000 C 
BRANCH  11  12
ATOM     12  N2  UNL     1      -1.098   1.936   2.001  0.00  0.00    +0.000 N 
ATOM     13  H   UNL     1      -0.679   1.147   2.414  0.00  0.00    +0.000 HD
ATOM     14  H   UNL     1      -0.941   2.831   2.379  0.00  0.00    +0.000 HD
ENDBRANCH  11  12
ENDBRANCH   5   6
BRANCH   1  15
ATOM     15  C4  UNL     1       0.574  -0.302  -1.056  0.00  0.00    +0.000 C 
ATOM     16  O1  UNL     1       0.253  -1.039  -1.991  0.00  0.00    +0.000 OA
BRANCH  15  17
ATOM     17  C3  UNL     1       1.252   1.028  -1.327  0.00  0.00    +0.000 C 
BRANCH  17  19
ATOM     18  C1  UNL     1       3.413   1.120  -0.003  0.00  0.00    +0.000 C 
ATOM     19  C2  UNL     1       2.771   0.912  -1.367  0.00  0.00    +0.000 C 
ENDBRANCH  17  19
ENDBRANCH  15  17
ENDBRANCH   1  15
BRANCH   2  20
ATOM     20  C7  UNL     1       2.043  -2.549   0.521  0.00  0.00    +0.000 C 
ATOM     21  F1  UNL     1       2.293  -2.489  -0.807  0.00  0.00    +0.000 F 
ENDBRANCH   2  20
TORSDOF 6
