REMARK  Name = ligantes_elite\Elite_083.pdb
REMARK  7 active torsions:
REMARK  status: ('A' for Active; 'I' for Inactive)
REMARK    1  A    between atoms: C1_1  and  C2_2
REMARK    2  A    between atoms: C2_2  and  C3_3
REMARK    3  A    between atoms: C3_3  and  C4_4
REMARK    4  A    between atoms: C4_4  and  C5_6
REMARK    5  A    between atoms: C6_7  and  O2_8
REMARK    6  A    between atoms: C9_11  and  C10_12
REMARK    7  A    between atoms: C14_17  and  C15_18
REMARK                            x       y       z     vdW  Elec       q    Type
REMARK                         _______ _______ _______ _____ _____    ______ ____
ROOT
ATOM      1  C5  UNL     1       0.393   1.186   0.057  0.00  0.00    +0.000 C 
ATOM      2  C6  UNL     1       0.632   2.075  -1.182  0.00  0.00    +0.000 C 
ATOM      3  C7  UNL     1       0.240   1.241  -2.398  0.00  0.00    +0.000 C 
ATOM      4  C8  UNL     1      -0.860   0.327  -1.883  0.00  0.00    +0.000 C 
ATOM      5  C9  UNL     1      -0.372  -0.047  -0.478  0.00  0.00    +0.000 C 
ENDROOT
BRANCH   5   6
ATOM      6  C10 UNL     1      -1.462  -0.638   0.398  0.00  0.00    +0.000 C 
ATOM      7  C11 UNL     1      -1.433  -2.031   0.576  0.00  0.00    +0.000 C 
ATOM      8  N1  UNL     1      -2.300  -2.749   1.321  0.00  0.00    +0.000 NA
ATOM      9  C12 UNL     1      -3.275  -2.060   1.934  0.00  0.00    +0.000 C 
ATOM     10  C13 UNL     1      -3.419  -0.689   1.822  0.00  0.00    +0.000 C 
ATOM     11  C14 UNL     1      -2.518   0.051   1.029  0.00  0.00    +0.000 C 
BRANCH  11  12
ATOM     12  C15 UNL     1      -2.755   1.540   0.981  0.00  0.00    +0.000 C 
ATOM     13  F1  UNL     1      -2.366   2.140  -0.177  0.00  0.00    +0.000 F 
ENDBRANCH  11  12
ENDBRANCH   5   6
BRANCH   1  14
ATOM     14  C4  UNL     1       1.720   0.947   0.784  0.00  0.00    +0.000 C 
ATOM     15  O1  UNL     1       2.354   1.908   1.238  0.00  0.00    +0.000 OA
BRANCH  14  16
ATOM     16  C3  UNL     1       2.293  -0.446   0.944  0.00  0.00    +0.000 C 
BRANCH  16  18
ATOM     17  C1  UNL     1       3.703  -2.234  -0.126  0.00  0.00    +0.000 C 
ATOM     18  C2  UNL     1       3.147  -0.825  -0.261  0.00  0.00    +0.000 C 
ENDBRANCH  16  18
ENDBRANCH  14  16
ENDBRANCH   1  14
BRANCH   2  19
ATOM     19  O2  UNL     1      -0.192   3.241  -1.128  0.00  0.00    +0.000 OA
ATOM     20  H   UNL     1      -1.124   2.976  -1.087  0.00  0.00    +0.000 HD
ENDBRANCH   2  19
TORSDOF 6
