REMARK  Name = ligantes_elite\Elite_018.pdb
REMARK  5 active torsions:
REMARK  status: ('A' for Active; 'I' for Inactive)
REMARK    1  A    between atoms: C1_1  and  C2_2
REMARK    2  A    between atoms: C2_2  and  C3_3
REMARK    3  A    between atoms: C3_3  and  C4_5
REMARK    4  A    between atoms: C8_10  and  C9_11
REMARK    5  A    between atoms: C13_16  and  C14_17
REMARK                            x       y       z     vdW  Elec       q    Type
REMARK                         _______ _______ _______ _____ _____    ______ ____
ROOT
ATOM      1  C4  UNL     1      -0.783   0.576  -0.120  0.00  0.00    +0.000 C 
ATOM      2  C5  UNL     1      -1.462   1.803   0.495  0.00  0.00    +0.000 C 
ATOM      3  F1  UNL     1      -2.027   2.562  -0.484  0.00  0.00    +0.000 F 
ATOM      4  C6  UNL     1      -0.351   2.619   1.123  0.00  0.00    +0.000 C 
ATOM      5  C7  UNL     1       0.786   2.433   0.130  0.00  0.00    +0.000 C 
ATOM      6  C8  UNL     1       0.726   0.941  -0.255  0.00  0.00    +0.000 C 
ENDROOT
BRANCH   6   7
ATOM      7  C9  UNL     1       1.609  -0.006   0.561  0.00  0.00    +0.000 C 
ATOM      8  C10 UNL     1       2.196   0.377   1.770  0.00  0.00    +0.000 C 
ATOM      9  N1  UNL     1       2.969  -0.413   2.550  0.00  0.00    +0.000 NA
ATOM     10  C11 UNL     1       3.185  -1.667   2.119  0.00  0.00    +0.000 C 
ATOM     11  C12 UNL     1       2.664  -2.163   0.939  0.00  0.00    +0.000 C 
ATOM     12  C13 UNL     1       1.872  -1.328   0.134  0.00  0.00    +0.000 C 
BRANCH  12  13
ATOM     13  C14 UNL     1       1.290  -1.918  -1.125  0.00  0.00    +0.000 C 
ATOM     14  F2  UNL     1       0.001  -2.316  -0.941  0.00  0.00    +0.000 F 
ENDBRANCH  12  13
ENDBRANCH   6   7
BRANCH   1  15
ATOM     15  C3  UNL     1      -1.443   0.223  -1.451  0.00  0.00    +0.000 C 
ATOM     16  O1  UNL     1      -0.821   0.232  -2.515  0.00  0.00    +0.000 OA
BRANCH  15  18
ATOM     17  C1  UNL     1      -3.029  -1.684  -1.107  0.00  0.00    +0.000 C 
ATOM     18  C2  UNL     1      -2.898  -0.208  -1.422  0.00  0.00    +0.000 C 
ENDBRANCH  15  18
ENDBRANCH   1  15
TORSDOF 4
