REMARK  Name = ligantes_elite\Elite_082.pdb
REMARK  3 active torsions:
REMARK  status: ('A' for Active; 'I' for Inactive)
REMARK    1  A    between atoms: C1_2  and  C2_4
REMARK    2  A    between atoms: C2_4  and  C3_6
REMARK    3  A    between atoms: C7_11  and  C8_12
REMARK                            x       y       z     vdW  Elec       q    Type
REMARK                         _______ _______ _______ _____ _____    ______ ____
ROOT
ATOM      1  C3  UNL     1      -0.769  -0.518   0.957  0.00  0.00    +0.000 C 
ATOM      2  C4  UNL     1      -1.840  -1.569   0.711  0.00  0.00    +0.000 C 
ATOM      3  F1  UNL     1      -2.773  -1.057  -0.139  0.00  0.00    +0.000 F 
ATOM      4  C5  UNL     1      -1.101  -2.685  -0.010  0.00  0.00    +0.000 C 
ATOM      5  C6  UNL     1       0.054  -2.000  -0.750  0.00  0.00    +0.000 C 
ATOM      6  C7  UNL     1      -0.029  -0.501  -0.391  0.00  0.00    +0.000 C 
ENDROOT
BRANCH   6   7
ATOM      7  C8  UNL     1       1.332   0.164  -0.455  0.00  0.00    +0.000 C 
ATOM      8  C9  UNL     1       2.150   0.254   0.672  0.00  0.00    +0.000 C 
ATOM      9  N2  UNL     1       3.380   0.820   0.707  0.00  0.00    +0.000 NA
ATOM     10  C10 UNL     1       3.845   1.335  -0.444  0.00  0.00    +0.000 C 
ATOM     11  C11 UNL     1       3.142   1.298  -1.631  0.00  0.00    +0.000 C 
ATOM     12  C12 UNL     1       1.879   0.701  -1.635  0.00  0.00    +0.000 C 
ATOM     13  I1  UNL     1       0.906   0.660  -3.503  0.00  0.00    +0.000 I 
ENDBRANCH   6   7
BRANCH   1  14
ATOM     14  C2  UNL     1      -1.441   0.729   1.476  0.00  0.00    +0.000 C 
ATOM     15  O2  UNL     1      -1.791   0.832   2.653  0.00  0.00    +0.000 OA
BRANCH  14  17
ATOM     16  N1  UNL     1      -2.999   2.487   0.843  0.00  0.00    +0.000 N 
ATOM     17  C1  UNL     1      -1.823   1.865   0.521  0.00  0.00    +0.000 C 
ATOM     18  O1  UNL     1      -1.119   2.207  -0.410  0.00  0.00    +0.000 OA
ATOM     19  H   UNL     1      -3.330   3.230   0.289  0.00  0.00    +0.000 HD
ATOM     20  H   UNL     1      -3.513   2.191   1.628  0.00  0.00    +0.000 HD
ENDBRANCH  14  17
ENDBRANCH   1  14
TORSDOF 3
