REMARK  Name = ligantes_elite\Elite_080.pdb
REMARK  4 active torsions:
REMARK  status: ('A' for Active; 'I' for Inactive)
REMARK    1  A    between atoms: C1_1  and  C2_2
REMARK    2  A    between atoms: C2_2  and  C3_3
REMARK    3  A    between atoms: C3_3  and  C4_5
REMARK    4  A    between atoms: C8_10  and  C9_11
REMARK                            x       y       z     vdW  Elec       q    Type
REMARK                         _______ _______ _______ _____ _____    ______ ____
ROOT
ATOM      1  C4  UNL     1       0.710  -1.171  -0.468  0.00  0.00    +0.000 C 
ATOM      2  C5  UNL     1       0.970  -2.079  -1.665  0.00  0.00    +0.000 C 
ATOM      3  F1  UNL     1       0.872  -3.370  -1.230  0.00  0.00    +0.000 F 
ATOM      4  C6  UNL     1      -0.162  -1.836  -2.663  0.00  0.00    +0.000 C 
ATOM      5  C7  UNL     1      -1.167  -0.922  -1.960  0.00  0.00    +0.000 C 
ATOM      6  C8  UNL     1      -0.820  -1.031  -0.466  0.00  0.00    +0.000 C 
ENDROOT
BRANCH   6   7
ATOM      7  C9  UNL     1      -1.371   0.020   0.472  0.00  0.00    +0.000 C 
ATOM      8  C10 UNL     1      -1.613   1.324   0.035  0.00  0.00    +0.000 C 
ATOM      9  N1  UNL     1      -2.082   2.331   0.809  0.00  0.00    +0.000 NA
ATOM     10  C11 UNL     1      -2.335   2.048   2.098  0.00  0.00    +0.000 C 
ATOM     11  C12 UNL     1      -2.128   0.804   2.654  0.00  0.00    +0.000 C 
ATOM     12  C13 UNL     1      -1.637  -0.215   1.834  0.00  0.00    +0.000 C 
ATOM     13  I1  UNL     1      -1.321  -2.069   2.783  0.00  0.00    +0.000 I 
ENDBRANCH   6   7
BRANCH   1  14
ATOM     14  C3  UNL     1       1.451   0.146  -0.641  0.00  0.00    +0.000 C 
ATOM     15  O1  UNL     1       1.496   0.716  -1.731  0.00  0.00    +0.000 OA
BRANCH  14  17
ATOM     16  C1  UNL     1       2.652   2.117   0.385  0.00  0.00    +0.000 C 
ATOM     17  C2  UNL     1       2.129   0.708   0.598  0.00  0.00    +0.000 C 
ENDBRANCH  14  17
ENDBRANCH   1  14
TORSDOF 3
