REMARK  Name = ligantes_elite\Elite_108.pdb
REMARK  5 active torsions:
REMARK  status: ('A' for Active; 'I' for Inactive)
REMARK    1  A    between atoms: C1_1  and  C2_2
REMARK    2  A    between atoms: C2_2  and  C3_3
REMARK    3  A    between atoms: C3_3  and  C4_4
REMARK    4  A    between atoms: C4_4  and  C5_6
REMARK    5  A    between atoms: C9_11  and  C10_12
REMARK                            x       y       z     vdW  Elec       q    Type
REMARK                         _______ _______ _______ _____ _____    ______ ____
ROOT
ATOM      1  C5  UNL     1       0.209   0.628   1.400  0.00  0.00    +0.000 C 
ATOM      2  C6  UNL     1       0.375   1.917   0.591  0.00  0.00    +0.000 C 
ATOM      3  F1  UNL     1       0.958   1.705  -0.609  0.00  0.00    +0.000 F 
ATOM      4  C7  UNL     1      -1.022   2.489   0.379  0.00  0.00    +0.000 C 
ATOM      5  C8  UNL     1      -1.898   1.770   1.395  0.00  0.00    +0.000 C 
ATOM      6  C9  UNL     1      -1.313   0.350   1.458  0.00  0.00    +0.000 C 
ENDROOT
BRANCH   6   7
ATOM      7  C10 UNL     1      -1.991  -0.545   0.444  0.00  0.00    +0.000 C 
ATOM      8  C11 UNL     1      -3.143  -1.237   0.815  0.00  0.00    +0.000 C 
ATOM      9  N1  UNL     1      -3.860  -2.046   0.000  0.00  0.00    +0.000 NA
ATOM     10  C12 UNL     1      -3.407  -2.199  -1.259  0.00  0.00    +0.000 C 
ATOM     11  C13 UNL     1      -2.282  -1.566  -1.741  0.00  0.00    +0.000 C 
ATOM     12  C14 UNL     1      -1.586  -0.735  -0.874  0.00  0.00    +0.000 C 
ATOM     13  F2  UNL     1      -0.507  -0.105  -1.351  0.00  0.00    +0.000 F 
ENDBRANCH   6   7
BRANCH   1  14
ATOM     14  C4  UNL     1       1.095  -0.554   1.042  0.00  0.00    +0.000 C 
ATOM     15  O1  UNL     1       0.698  -1.713   1.194  0.00  0.00    +0.000 OA
BRANCH  14  16
ATOM     16  C3  UNL     1       2.538  -0.296   0.652  0.00  0.00    +0.000 C 
BRANCH  16  18
ATOM     17  C1  UNL     1       4.277  -0.611  -1.139  0.00  0.00    +0.000 C 
ATOM     18  C2  UNL     1       2.838  -0.873  -0.726  0.00  0.00    +0.000 C 
ENDBRANCH  16  18
ENDBRANCH  14  16
ENDBRANCH   1  14
TORSDOF 4
