REMARK  Name = ligantes_elite\Elite_113.pdb
REMARK  6 active torsions:
REMARK  status: ('A' for Active; 'I' for Inactive)
REMARK    1  A    between atoms: C1_1  and  C2_2
REMARK    2  A    between atoms: C2_2  and  C3_3
REMARK    3  A    between atoms: C2_2  and  C4_4
REMARK    4  A    between atoms: C4_4  and  C5_6
REMARK    5  A    between atoms: C6_7  and  C7_8
REMARK    6  A    between atoms: C10_12  and  C11_13
REMARK                            x       y       z     vdW  Elec       q    Type
REMARK                         _______ _______ _______ _____ _____    ______ ____
ROOT
ATOM      1  C5  UNL     1      -0.114  -0.921  -0.172  0.00  0.00    +0.000 C 
ATOM      2  C6  UNL     1      -0.478  -1.922   0.935  0.00  0.00    +0.000 C 
ATOM      3  C8  UNL     1       0.772  -2.024   1.827  0.00  0.00    +0.000 C 
ATOM      4  C9  UNL     1       1.791  -1.043   1.252  0.00  0.00    +0.000 C 
ATOM      5  C10 UNL     1       0.954  -0.025   0.471  0.00  0.00    +0.000 C 
ENDROOT
BRANCH   5   6
ATOM      6  C11 UNL     1       1.775   0.803  -0.481  0.00  0.00    +0.000 C 
ATOM      7  C12 UNL     1       2.441   0.274  -1.579  0.00  0.00    +0.000 C 
ATOM      8  N1  UNL     1       3.195   1.000  -2.437  0.00  0.00    +0.000 NA
ATOM      9  C13 UNL     1       3.297   2.325  -2.204  0.00  0.00    +0.000 C 
ATOM     10  C14 UNL     1       2.682   2.958  -1.145  0.00  0.00    +0.000 C 
ATOM     11  C15 UNL     1       1.924   2.176  -0.287  0.00  0.00    +0.000 C 
ATOM     12  F2  UNL     1       1.318   2.772   0.751  0.00  0.00    +0.000 F 
ENDBRANCH   5   6
BRANCH   1  13
ATOM     13  C4  UNL     1      -1.331  -0.181  -0.715  0.00  0.00    +0.000 C 
ATOM     14  O1  UNL     1      -1.676  -0.371  -1.885  0.00  0.00    +0.000 OA
BRANCH  13  16
ATOM     15  C1  UNL     1      -2.127   2.157  -0.361  0.00  0.00    +0.000 C 
ATOM     16  C2  UNL     1      -2.133   0.739   0.199  0.00  0.00    +0.000 C 
ATOM     17  C3  UNL     1      -3.559   0.209   0.331  0.00  0.00    +0.000 C 
ENDBRANCH  13  16
ENDBRANCH   1  13
BRANCH   2  18
ATOM     18  C7  UNL     1      -0.913  -3.270   0.376  0.00  0.00    +0.000 C 
ATOM     19  F1  UNL     1      -1.255  -4.077   1.415  0.00  0.00    +0.000 F 
ENDBRANCH   2  18
TORSDOF 4
