REMARK  Name = ligantes_elite\Elite_044.pdb
REMARK  4 active torsions:
REMARK  status: ('A' for Active; 'I' for Inactive)
REMARK    1  A    between atoms: C1_2  and  C2_3
REMARK    2  A    between atoms: C1_2  and  C5_6
REMARK    3  A    between atoms: C6_7  and  O2_8
REMARK    4  A    between atoms: C9_11  and  C10_12
REMARK                            x       y       z     vdW  Elec       q    Type
REMARK                         _______ _______ _______ _____ _____    ______ ____
ROOT
ATOM      1  C5  UNL     1       0.748  -0.654  -0.528  0.00  0.00    +0.000 C 
ATOM      2  C6  UNL     1       1.301  -1.375   0.702  0.00  0.00    +0.000 C 
ATOM      3  C7  UNL     1       0.606  -2.729   0.624  0.00  0.00    +0.000 C 
ATOM      4  C8  UNL     1      -0.831  -2.373   0.247  0.00  0.00    +0.000 C 
ATOM      5  C9  UNL     1      -0.733  -1.106  -0.635  0.00  0.00    +0.000 C 
ENDROOT
BRANCH   5   6
ATOM      6  C10 UNL     1      -1.812  -0.103  -0.303  0.00  0.00    +0.000 C 
ATOM      7  C11 UNL     1      -1.930   0.522   0.932  0.00  0.00    +0.000 C 
ATOM      8  N1  UNL     1      -2.890   1.424   1.247  0.00  0.00    +0.000 NA
ATOM      9  C12 UNL     1      -3.780   1.737   0.283  0.00  0.00    +0.000 C 
ATOM     10  C13 UNL     1      -3.763   1.179  -0.977  0.00  0.00    +0.000 C 
ATOM     11  C14 UNL     1      -2.769   0.253  -1.253  0.00  0.00    +0.000 C 
ATOM     12  F1  UNL     1      -2.749  -0.313  -2.470  0.00  0.00    +0.000 F 
ENDBRANCH   5   6
BRANCH   1  14
ATOM     13  O1  UNL     1       0.502   1.488  -1.593  0.00  0.00    +0.000 OA
ATOM     14  C1  UNL     1       0.997   0.836  -0.678  0.00  0.00    +0.000 C 
BRANCH  14  15
ATOM     15  C2  UNL     1       1.931   1.501   0.270  0.00  0.00    +0.000 C 
ATOM     16  C3  UNL     1       3.417   1.239   0.191  0.00  0.00    +0.000 C 
ATOM     17  C4  UNL     1       2.876   2.571  -0.232  0.00  0.00    +0.000 C 
ENDBRANCH  14  15
ENDBRANCH   1  14
BRANCH   2  18
ATOM     18  O2  UNL     1       0.929  -0.737   1.915  0.00  0.00    +0.000 OA
ATOM     19  H   UNL     1      -0.038  -0.680   1.967  0.00  0.00    +0.000 HD
ENDBRANCH   2  18
TORSDOF 4
