REMARK  Name = ligantes_elite\Elite_017.pdb
REMARK  6 active torsions:
REMARK  status: ('A' for Active; 'I' for Inactive)
REMARK    1  A    between atoms: C1_1  and  C2_2
REMARK    2  A    between atoms: C2_2  and  C3_3
REMARK    3  A    between atoms: C2_2  and  C4_4
REMARK    4  A    between atoms: C4_4  and  C5_6
REMARK    5  A    between atoms: C6_7  and  C7_8
REMARK    6  A    between atoms: C10_11  and  C11_12
REMARK                            x       y       z     vdW  Elec       q    Type
REMARK                         _______ _______ _______ _____ _____    ______ ____
ROOT
ATOM      1  C5  UNL     1       0.613   0.736  -0.639  0.00  0.00    +0.000 C 
ATOM      2  C6  UNL     1       0.948   2.234  -0.848  0.00  0.00    +0.000 C 
ATOM      3  C7  UNL     1       1.752   2.894   0.279  0.00  0.00    +0.000 C 
ATOM      4  C8  UNL     1      -0.448   2.852  -0.935  0.00  0.00    +0.000 C 
ATOM      5  C9  UNL     1      -1.226   2.170   0.184  0.00  0.00    +0.000 C 
ATOM      6  C10 UNL     1      -0.606   0.761   0.328  0.00  0.00    +0.000 C 
ENDROOT
BRANCH   6   7
ATOM      7  C11 UNL     1      -1.665  -0.302   0.091  0.00  0.00    +0.000 C 
ATOM      8  C12 UNL     1      -2.158  -0.540  -1.193  0.00  0.00    +0.000 C 
ATOM      9  N1  UNL     1      -3.097  -1.461  -1.508  0.00  0.00    +0.000 NA
ATOM     10  C13 UNL     1      -3.609  -2.182  -0.494  0.00  0.00    +0.000 C 
ATOM     11  C14 UNL     1      -3.230  -2.015   0.822  0.00  0.00    +0.000 C 
ATOM     12  C15 UNL     1      -2.256  -1.059   1.114  0.00  0.00    +0.000 C 
ATOM     13 BR1  UNL     1      -1.815  -0.843   2.951  0.00  0.00    +0.000 Br
ENDBRANCH   6   7
BRANCH   1  14
ATOM     14  C4  UNL     1       1.815  -0.115  -0.204  0.00  0.00    +0.000 C 
ATOM     15  O1  UNL     1       2.967   0.262  -0.435  0.00  0.00    +0.000 OA
BRANCH  14  17
ATOM     16  C1  UNL     1       2.765  -1.975   1.199  0.00  0.00    +0.000 C 
ATOM     17  C2  UNL     1       1.565  -1.507   0.376  0.00  0.00    +0.000 C 
ATOM     18  C3  UNL     1       1.271  -2.492  -0.749  0.00  0.00    +0.000 C 
ENDBRANCH  14  17
ENDBRANCH   1  14
TORSDOF 3
