REMARK  Name = ligantes_elite\Elite_159.pdb
REMARK  4 active torsions:
REMARK  status: ('A' for Active; 'I' for Inactive)
REMARK    1  A    between atoms: C1_1  and  C2_2
REMARK    2  A    between atoms: C5_5  and  C6_6
REMARK    3  A    between atoms: C11_13  and  C12_14
REMARK    4  A    between atoms: C12_14  and  C13_16
REMARK                            x       y       z     vdW  Elec       q    Type
REMARK                         _______ _______ _______ _____ _____    ______ ____
ROOT
ATOM      1  C1  UNL     1       1.947  -2.455   0.814  0.00  0.00    +0.000 C 
ATOM      2  C2  UNL     1       0.617  -1.880   0.350  0.00  0.00    +0.000 C 
ATOM      3  C3  UNL     1       0.261  -2.302  -1.075  0.00  0.00    +0.000 C 
ATOM      4  C4  UNL     1      -0.892  -1.375  -1.433  0.00  0.00    +0.000 C 
ATOM      5  C5  UNL     1      -0.455  -0.021  -0.855  0.00  0.00    +0.000 C 
ATOM      6  C11 UNL     1       0.481  -0.340   0.345  0.00  0.00    +0.000 C 
ENDROOT
BRANCH   5   7
ATOM      7  C6  UNL     1      -1.576   0.959  -0.580  0.00  0.00    +0.000 C 
ATOM      8  C7  UNL     1      -1.592   2.143  -1.325  0.00  0.00    +0.000 C 
ATOM      9  N1  UNL     1      -2.509   3.130  -1.208  0.00  0.00    +0.000 NA
ATOM     10  C8  UNL     1      -3.483   2.947  -0.300  0.00  0.00    +0.000 C 
ATOM     11  C9  UNL     1      -3.578   1.823   0.494  0.00  0.00    +0.000 C 
ATOM     12  C10 UNL     1      -2.615   0.820   0.351  0.00  0.00    +0.000 C 
ATOM     13 BR1  UNL     1      -2.829  -0.684   1.493  0.00  0.00    +0.000 Br
ENDBRANCH   5   7
BRANCH   6  14
ATOM     14  C12 UNL     1       1.815   0.377   0.185  0.00  0.00    +0.000 C 
ATOM     15  O1  UNL     1       2.399   0.540  -0.883  0.00  0.00    +0.000 OA
BRANCH  14  16
ATOM     16  C13 UNL     1       2.484   0.890   1.468  0.00  0.00    +0.000 C 
ATOM     17  N2  UNL     1       3.649   1.574   1.257  0.00  0.00    +0.000 N 
ATOM     18  O2  UNL     1       2.007   0.691   2.571  0.00  0.00    +0.000 OA
ATOM     19  H   UNL     1       3.985   1.703   0.341  0.00  0.00    +0.000 HD
ATOM     20  H   UNL     1       4.152   1.937   2.021  0.00  0.00    +0.000 HD
ENDBRANCH  14  16
ENDBRANCH   6  14
TORSDOF 3
