REMARK  Name = ligantes_elite\Elite_167.pdb
REMARK  6 active torsions:
REMARK  status: ('A' for Active; 'I' for Inactive)
REMARK    1  A    between atoms: C1_1  and  C2_2
REMARK    2  A    between atoms: C2_2  and  C3_3
REMARK    3  A    between atoms: C3_3  and  C4_4
REMARK    4  A    between atoms: C4_4  and  C5_6
REMARK    5  A    between atoms: C6_7  and  O2_8
REMARK    6  A    between atoms: C9_11  and  C10_12
REMARK                            x       y       z     vdW  Elec       q    Type
REMARK                         _______ _______ _______ _____ _____    ______ ____
ROOT
ATOM      1  C5  UNL     1       0.039  -0.820   0.694  0.00  0.00    +0.000 C 
ATOM      2  C6  UNL     1       0.058  -2.269   0.178  0.00  0.00    +0.000 C 
ATOM      3  C7  UNL     1      -1.349  -2.785   0.460  0.00  0.00    +0.000 C 
ATOM      4  C8  UNL     1      -2.236  -1.598   0.106  0.00  0.00    +0.000 C 
ATOM      5  C9  UNL     1      -1.455  -0.382   0.636  0.00  0.00    +0.000 C 
ENDROOT
BRANCH   5   6
ATOM      6  C10 UNL     1      -1.907   0.952   0.077  0.00  0.00    +0.000 C 
ATOM      7  C11 UNL     1      -2.483   1.849   0.991  0.00  0.00    +0.000 C 
ATOM      8  N1  UNL     1      -2.978   3.075   0.702  0.00  0.00    +0.000 NA
ATOM      9  C12 UNL     1      -2.880   3.471  -0.576  0.00  0.00    +0.000 C 
ATOM     10  C13 UNL     1      -2.327   2.690  -1.571  0.00  0.00    +0.000 C 
ATOM     11  C14 UNL     1      -1.839   1.417  -1.244  0.00  0.00    +0.000 C 
ATOM     12  I1  UNL     1      -1.037   0.365  -2.870  0.00  0.00    +0.000 I 
ENDBRANCH   5   6
BRANCH   1  13
ATOM     13  C4  UNL     1       1.102   0.148   0.180  0.00  0.00    +0.000 C 
ATOM     14  O1  UNL     1       0.978   1.363   0.357  0.00  0.00    +0.000 OA
BRANCH  13  15
ATOM     15  C3  UNL     1       2.373  -0.420  -0.438  0.00  0.00    +0.000 C 
BRANCH  15  17
ATOM     16  C1  UNL     1       4.120   0.770   0.968  0.00  0.00    +0.000 C 
ATOM     17  C2  UNL     1       3.549   0.557  -0.427  0.00  0.00    +0.000 C 
ENDBRANCH  15  17
ENDBRANCH  13  15
ENDBRANCH   1  13
BRANCH   2  18
ATOM     18  O2  UNL     1       0.308  -2.343  -1.215  0.00  0.00    +0.000 OA
ATOM     19  H   UNL     1      -0.373  -1.844  -1.693  0.00  0.00    +0.000 HD
ENDBRANCH   2  18
TORSDOF 5
