REMARK  Name = ligantes_elite\Elite_078.pdb
REMARK  5 active torsions:
REMARK  status: ('A' for Active; 'I' for Inactive)
REMARK    1  A    between atoms: C1_1  and  C2_2
REMARK    2  A    between atoms: C2_2  and  C3_3
REMARK    3  A    between atoms: C3_3  and  C4_5
REMARK    4  A    between atoms: C5_6  and  O2_7
REMARK    5  A    between atoms: C8_10  and  C9_11
REMARK                            x       y       z     vdW  Elec       q    Type
REMARK                         _______ _______ _______ _____ _____    ______ ____
ROOT
ATOM      1  C4  UNL     1      -0.837  -0.533   0.141  0.00  0.00    +0.000 C 
ATOM      2  C5  UNL     1      -1.395  -1.894   0.593  0.00  0.00    +0.000 C 
ATOM      3  C6  UNL     1      -0.418  -2.947   0.075  0.00  0.00    +0.000 C 
ATOM      4  C7  UNL     1       0.926  -2.230   0.064  0.00  0.00    +0.000 C 
ATOM      5  C8  UNL     1       0.560  -0.833  -0.445  0.00  0.00    +0.000 C 
ENDROOT
BRANCH   5   6
ATOM      6  C9  UNL     1       1.618   0.230  -0.247  0.00  0.00    +0.000 C 
ATOM      7  C10 UNL     1       2.185   0.792  -1.397  0.00  0.00    +0.000 C 
ATOM      8  N1  UNL     1       3.128   1.760  -1.412  0.00  0.00    +0.000 NA
ATOM      9  C11 UNL     1       3.561   2.204  -0.220  0.00  0.00    +0.000 C 
ATOM     10  C12 UNL     1       3.085   1.726   0.984  0.00  0.00    +0.000 C 
ATOM     11  C13 UNL     1       2.104   0.731   0.968  0.00  0.00    +0.000 C 
ATOM     12 BR1  UNL     1       1.511   0.148   2.677  0.00  0.00    +0.000 Br
ENDBRANCH   5   6
BRANCH   1  13
ATOM     13  C3  UNL     1      -1.717   0.088  -0.932  0.00  0.00    +0.000 C 
ATOM     14  O1  UNL     1      -2.293  -0.597  -1.778  0.00  0.00    +0.000 OA
BRANCH  13  16
ATOM     15  C1  UNL     1      -2.901   2.050   0.053  0.00  0.00    +0.000 C 
ATOM     16  C2  UNL     1      -1.846   1.597  -0.937  0.00  0.00    +0.000 C 
ENDBRANCH  13  16
ENDBRANCH   1  13
BRANCH   2  17
ATOM     17  O2  UNL     1      -1.407  -1.953   2.020  0.00  0.00    +0.000 OA
ATOM     18  H   UNL     1      -0.508  -1.814   2.357  0.00  0.00    +0.000 HD
ENDBRANCH   2  17
TORSDOF 4
