REMARK  Name = ligantes_elite\Elite_109.pdb
REMARK  4 active torsions:
REMARK  status: ('A' for Active; 'I' for Inactive)
REMARK    1  A    between atoms: C1_2  and  C2_4
REMARK    2  A    between atoms: C2_4  and  C3_6
REMARK    3  A    between atoms: C4_7  and  C5_8
REMARK    4  A    between atoms: C8_12  and  C9_13
REMARK                            x       y       z     vdW  Elec       q    Type
REMARK                         _______ _______ _______ _____ _____    ______ ____
ROOT
ATOM      1  C3  UNL     1      -0.712  -0.136   0.248  0.00  0.00    +0.000 C 
ATOM      2  C4  UNL     1      -1.510   0.721   1.249  0.00  0.00    +0.000 C 
ATOM      3  C6  UNL     1      -0.409   1.246   2.167  0.00  0.00    +0.000 C 
ATOM      4  C7  UNL     1       0.744   1.595   1.232  0.00  0.00    +0.000 C 
ATOM      5  C8  UNL     1       0.598   0.662   0.006  0.00  0.00    +0.000 C 
ENDROOT
BRANCH   5   6
ATOM      6  C9  UNL     1       1.816  -0.219  -0.202  0.00  0.00    +0.000 C 
ATOM      7  C10 UNL     1       2.204  -1.109   0.806  0.00  0.00    +0.000 C 
ATOM      8  N2  UNL     1       3.260  -1.950   0.744  0.00  0.00    +0.000 NA
ATOM      9  C11 UNL     1       3.995  -1.918  -0.381  0.00  0.00    +0.000 C 
ATOM     10  C12 UNL     1       3.724  -1.078  -1.442  0.00  0.00    +0.000 C 
ATOM     11  C13 UNL     1       2.625  -0.217  -1.348  0.00  0.00    +0.000 C 
ATOM     12  I1  UNL     1       2.326   1.044  -3.003  0.00  0.00    +0.000 I 
ENDBRANCH   5   6
BRANCH   1  13
ATOM     13  C2  UNL     1      -1.473  -0.453  -1.027  0.00  0.00    +0.000 C 
ATOM     14  O2  UNL     1      -1.246   0.052  -2.122  0.00  0.00    +0.000 OA
BRANCH  13  16
ATOM     15  N1  UNL     1      -3.323  -1.671  -2.051  0.00  0.00    +0.000 N 
ATOM     16  C1  UNL     1      -2.607  -1.479  -0.903  0.00  0.00    +0.000 C 
ATOM     17  O1  UNL     1      -2.826  -2.064   0.144  0.00  0.00    +0.000 OA
ATOM     18  H   UNL     1      -4.070  -2.312  -2.064  0.00  0.00    +0.000 HD
ATOM     19  H   UNL     1      -3.092  -1.168  -2.865  0.00  0.00    +0.000 HD
ENDBRANCH  13  16
ENDBRANCH   1  13
BRANCH   2  20
ATOM     20  C5  UNL     1      -2.303   1.861   0.610  0.00  0.00    +0.000 C 
ATOM     21  F1  UNL     1      -3.318   1.329  -0.122  0.00  0.00    +0.000 F 
ENDBRANCH   2  20
TORSDOF 4
