REMARK  Name = ligantes_elite\Elite_147.pdb
REMARK  7 active torsions:
REMARK  status: ('A' for Active; 'I' for Inactive)
REMARK    1  A    between atoms: C1_1  and  C2_2
REMARK    2  A    between atoms: C2_2  and  C3_3
REMARK    3  A    between atoms: C3_3  and  C4_4
REMARK    4  A    between atoms: C4_4  and  C5_6
REMARK    5  A    between atoms: C6_7  and  C7_8
REMARK    6  A    between atoms: C10_12  and  C11_13
REMARK    7  A    between atoms: C15_18  and  C16_19
REMARK                            x       y       z     vdW  Elec       q    Type
REMARK                         _______ _______ _______ _____ _____    ______ ____
ROOT
ATOM      1  C5  UNL     1       0.275   0.644  -0.782  0.00  0.00    +0.000 C 
ATOM      2  C6  UNL     1       0.035   1.443  -2.072  0.00  0.00    +0.000 C 
ATOM      3  C8  UNL     1      -1.286   2.150  -1.785  0.00  0.00    +0.000 C 
ATOM      4  C9  UNL     1      -2.133   1.067  -1.132  0.00  0.00    +0.000 C 
ATOM      5  C10 UNL     1      -1.141   0.147  -0.389  0.00  0.00    +0.000 C 
ENDROOT
BRANCH   5   6
ATOM      6  C11 UNL     1      -1.419   0.113   1.104  0.00  0.00    +0.000 C 
ATOM      7  C12 UNL     1      -1.121   1.217   1.909  0.00  0.00    +0.000 C 
ATOM      8  N1  UNL     1      -1.305   1.273   3.246  0.00  0.00    +0.000 NA
ATOM      9  C13 UNL     1      -1.847   0.189   3.827  0.00  0.00    +0.000 C 
ATOM     10  C14 UNL     1      -2.218  -0.947   3.129  0.00  0.00    +0.000 C 
ATOM     11  C15 UNL     1      -2.018  -0.993   1.741  0.00  0.00    +0.000 C 
BRANCH  11  12
ATOM     12  C16 UNL     1      -2.455  -2.226   0.992  0.00  0.00    +0.000 C 
ATOM     13  F2  UNL     1      -3.231  -1.939  -0.090  0.00  0.00    +0.000 F 
ENDBRANCH  11  12
ENDBRANCH   5   6
BRANCH   1  14
ATOM     14  C4  UNL     1       1.250  -0.514  -0.972  0.00  0.00    +0.000 C 
ATOM     15  O1  UNL     1       1.708  -0.796  -2.079  0.00  0.00    +0.000 OA
BRANCH  14  16
ATOM     16  C3  UNL     1       1.623  -1.305   0.274  0.00  0.00    +0.000 C 
BRANCH  16  18
ATOM     17  C1  UNL     1       4.146  -1.091   0.147  0.00  0.00    +0.000 C 
ATOM     18  C2  UNL     1       2.955  -2.040   0.151  0.00  0.00    +0.000 C 
ENDBRANCH  16  18
ENDBRANCH  14  16
ENDBRANCH   1  14
BRANCH   2  19
ATOM     19  C7  UNL     1       1.158   2.410  -2.409  0.00  0.00    +0.000 C 
ATOM     20  F1  UNL     1       0.813   3.112  -3.522  0.00  0.00    +0.000 F 
ENDBRANCH   2  19
TORSDOF 6
