REMARK  Name = ligantes_elite\Elite_035.pdb
REMARK  4 active torsions:
REMARK  status: ('A' for Active; 'I' for Inactive)
REMARK    1  A    between atoms: C1_1  and  C2_2
REMARK    2  A    between atoms: C5_5  and  C6_6
REMARK    3  A    between atoms: C11_13  and  C12_14
REMARK    4  A    between atoms: C12_14  and  C13_16
REMARK                            x       y       z     vdW  Elec       q    Type
REMARK                         _______ _______ _______ _____ _____    ______ ____
ROOT
ATOM      1  C1  UNL     1      -2.303   2.580  -0.231  0.00  0.00    +0.000 C 
ATOM      2  C2  UNL     1      -0.966   1.871  -0.405  0.00  0.00    +0.000 C 
ATOM      3  C3  UNL     1      -0.339   2.156  -1.767  0.00  0.00    +0.000 C 
ATOM      4  C4  UNL     1       0.722   1.073  -1.920  0.00  0.00    +0.000 C 
ATOM      5  C5  UNL     1       0.189  -0.157  -1.149  0.00  0.00    +0.000 C 
ATOM      6  C11 UNL     1      -1.080   0.339  -0.405  0.00  0.00    +0.000 C 
ENDROOT
BRANCH   5   7
ATOM      7  C6  UNL     1       1.260  -0.824  -0.318  0.00  0.00    +0.000 C 
ATOM      8  C7  UNL     1       1.549  -2.174  -0.489  0.00  0.00    +0.000 C 
ATOM      9  N1  UNL     1       2.479  -2.852   0.223  0.00  0.00    +0.000 NA
ATOM     10  C8  UNL     1       3.169  -2.162   1.154  0.00  0.00    +0.000 C 
ATOM     11  C9  UNL     1       2.967  -0.823   1.411  0.00  0.00    +0.000 C 
ATOM     12  C10 UNL     1       2.003  -0.166   0.662  0.00  0.00    +0.000 C 
ATOM     13  F1  UNL     1       1.791   1.134   0.906  0.00  0.00    +0.000 F 
ENDBRANCH   5   7
BRANCH   6  14
ATOM     14  C12 UNL     1      -1.302  -0.266   0.969  0.00  0.00    +0.000 C 
ATOM     15  O1  UNL     1      -1.254   0.348   2.030  0.00  0.00    +0.000 OA
BRANCH  14  16
ATOM     16  C13 UNL     1      -1.633  -1.763   0.998  0.00  0.00    +0.000 C 
ATOM     17  N2  UNL     1      -1.727  -2.298   2.251  0.00  0.00    +0.000 N 
ATOM     18  O2  UNL     1      -1.788  -2.399  -0.031  0.00  0.00    +0.000 OA
ATOM     19  H   UNL     1      -1.590  -1.727   3.041  0.00  0.00    +0.000 HD
ATOM     20  H   UNL     1      -1.932  -3.254   2.364  0.00  0.00    +0.000 HD
ENDBRANCH  14  16
ENDBRANCH   6  14
TORSDOF 3
