REMARK  Name = ligantes_elite\Elite_019.pdb
REMARK  4 active torsions:
REMARK  status: ('A' for Active; 'I' for Inactive)
REMARK    1  A    between atoms: C1_2  and  C2_3
REMARK    2  A    between atoms: C1_2  and  C5_6
REMARK    3  A    between atoms: C9_11  and  C10_12
REMARK    4  A    between atoms: C14_17  and  C15_18
REMARK                            x       y       z     vdW  Elec       q    Type
REMARK                         _______ _______ _______ _____ _____    ______ ____
ROOT
ATOM      1  C5  UNL     1       1.058   0.891  -0.291  0.00  0.00    +0.000 C 
ATOM      2  C6  UNL     1       1.302   2.339  -0.691  0.00  0.00    +0.000 C 
ATOM      3  F1  UNL     1       2.493   2.771  -0.209  0.00  0.00    +0.000 F 
ATOM      4  C7  UNL     1       0.170   3.094  -0.025  0.00  0.00    +0.000 C 
ATOM      5  C8  UNL     1      -1.036   2.202  -0.276  0.00  0.00    +0.000 C 
ATOM      6  C9  UNL     1      -0.487   0.755  -0.291  0.00  0.00    +0.000 C 
ENDROOT
BRANCH   6   7
ATOM      7  C10 UNL     1      -1.000  -0.086   0.870  0.00  0.00    +0.000 C 
ATOM      8  C11 UNL     1      -0.738   0.303   2.189  0.00  0.00    +0.000 C 
ATOM      9  N1  UNL     1      -1.091  -0.397   3.287  0.00  0.00    +0.000 NA
ATOM     10  C12 UNL     1      -1.743  -1.551   3.072  0.00  0.00    +0.000 C 
ATOM     11  C13 UNL     1      -2.075  -2.019   1.812  0.00  0.00    +0.000 C 
ATOM     12  C14 UNL     1      -1.730  -1.279   0.668  0.00  0.00    +0.000 C 
BRANCH  12  13
ATOM     13  C15 UNL     1      -2.123  -1.784  -0.707  0.00  0.00    +0.000 C 
ATOM     14  C16 UNL     1      -3.145  -1.003  -1.511  0.00  0.00    +0.000 C 
ATOM     15  C17 UNL     1      -3.503  -2.354  -0.974  0.00  0.00    +0.000 C 
ENDBRANCH  12  13
ENDBRANCH   6   7
BRANCH   1  17
ATOM     16  O1  UNL     1       1.166  -0.892  -1.941  0.00  0.00    +0.000 OA
ATOM     17  C1  UNL     1       1.746  -0.050  -1.264  0.00  0.00    +0.000 C 
BRANCH  17  18
ATOM     18  C2  UNL     1       3.233   0.074  -1.350  0.00  0.00    +0.000 C 
ATOM     19  C3  UNL     1       4.103  -1.161  -1.287  0.00  0.00    +0.000 C 
ATOM     20  C4  UNL     1       4.090  -0.200  -0.136  0.00  0.00    +0.000 C 
ENDBRANCH  17  18
ENDBRANCH   1  17
TORSDOF 4
