REMARK  Name = ligantes_elite\Elite_119.pdb
REMARK  6 active torsions:
REMARK  status: ('A' for Active; 'I' for Inactive)
REMARK    1  A    between atoms: C1_1  and  O1_2
REMARK    2  A    between atoms: O1_2  and  C2_3
REMARK    3  A    between atoms: C2_3  and  C3_5
REMARK    4  A    between atoms: C4_6  and  C5_7
REMARK    5  A    between atoms: C8_10  and  C9_11
REMARK    6  A    between atoms: C13_16  and  C14_17
REMARK                            x       y       z     vdW  Elec       q    Type
REMARK                         _______ _______ _______ _____ _____    ______ ____
ROOT
ATOM      1  C3  UNL     1      -1.444  -0.085  -0.670  0.00  0.00    +0.000 C 
ATOM      2  C4  UNL     1      -2.098  -1.474  -0.649  0.00  0.00    +0.000 C 
ATOM      3  C5  UNL     1      -3.611  -1.435  -0.824  0.00  0.00    +0.000 C 
ATOM      4  C6  UNL     1      -1.401  -2.178  -1.811  0.00  0.00    +0.000 C 
ATOM      5  C7  UNL     1       0.054  -1.725  -1.724  0.00  0.00    +0.000 C 
ATOM      6  C8  UNL     1       0.045  -0.359  -0.995  0.00  0.00    +0.000 C 
ENDROOT
BRANCH   6   7
ATOM      7  C9  UNL     1       1.002  -0.307   0.187  0.00  0.00    +0.000 C 
ATOM      8  C10 UNL     1       0.983  -1.306   1.169  0.00  0.00    +0.000 C 
ATOM      9  N1  UNL     1       1.749  -1.320   2.280  0.00  0.00    +0.000 NA
ATOM     10  C11 UNL     1       2.580  -0.278   2.442  0.00  0.00    +0.000 C 
ATOM     11  C12 UNL     1       2.680   0.768   1.540  0.00  0.00    +0.000 C 
ATOM     12  C13 UNL     1       1.897   0.773   0.373  0.00  0.00    +0.000 C 
BRANCH  12  13
ATOM     13  C14 UNL     1       2.000   1.937  -0.595  0.00  0.00    +0.000 C 
ATOM     14  C15 UNL     1       3.340   2.553  -0.936  0.00  0.00    +0.000 C 
ATOM     15  C16 UNL     1       2.625   1.727  -1.957  0.00  0.00    +0.000 C 
ENDBRANCH  12  13
ENDBRANCH   6   7
BRANCH   1  16
ATOM     16  C2  UNL     1      -1.655   0.796   0.545  0.00  0.00    +0.000 C 
ATOM     17  O2  UNL     1      -1.499   2.012   0.519  0.00  0.00    +0.000 OA
BRANCH  16  19
ATOM     18  C1  UNL     1      -2.105   0.855   2.839  0.00  0.00    +0.000 C 
ATOM     19  O1  UNL     1      -1.995   0.079   1.646  0.00  0.00    +0.000 OA
ENDBRANCH  16  19
ENDBRANCH   1  16
TORSDOF 4
