REMARK  Name = ligantes_elite\Elite_011.pdb
REMARK  4 active torsions:
REMARK  status: ('A' for Active; 'I' for Inactive)
REMARK    1  A    between atoms: C1_2  and  C2_3
REMARK    2  A    between atoms: C1_2  and  C5_6
REMARK    3  A    between atoms: C9_11  and  C10_12
REMARK    4  A    between atoms: C14_17  and  C15_18
REMARK                            x       y       z     vdW  Elec       q    Type
REMARK                         _______ _______ _______ _____ _____    ______ ____
ROOT
ATOM      1  C5  UNL     1       0.966  -0.754  -0.198  0.00  0.00    +0.000 C 
ATOM      2  C6  UNL     1       1.724  -1.835  -0.955  0.00  0.00    +0.000 C 
ATOM      3  F1  UNL     1       1.728  -2.958  -0.177  0.00  0.00    +0.000 F 
ATOM      4  C7  UNL     1       0.907  -2.143  -2.207  0.00  0.00    +0.000 C 
ATOM      5  C8  UNL     1      -0.485  -1.548  -1.972  0.00  0.00    +0.000 C 
ATOM      6  C9  UNL     1      -0.499  -1.104  -0.499  0.00  0.00    +0.000 C 
ENDROOT
BRANCH   6   7
ATOM      7  C10 UNL     1      -1.517  -0.058  -0.093  0.00  0.00    +0.000 C 
ATOM      8  C11 UNL     1      -1.842   1.007  -0.939  0.00  0.00    +0.000 C 
ATOM      9  N1  UNL     1      -2.722   1.990  -0.641  0.00  0.00    +0.000 NA
ATOM     10  C12 UNL     1      -3.322   1.930   0.560  0.00  0.00    +0.000 C 
ATOM     11  C13 UNL     1      -3.076   0.932   1.482  0.00  0.00    +0.000 C 
ATOM     12  C14 UNL     1      -2.155  -0.080   1.168  0.00  0.00    +0.000 C 
BRANCH  12  13
ATOM     13  C15 UNL     1      -1.902  -1.162   2.192  0.00  0.00    +0.000 C 
ATOM     14  F2  UNL     1      -2.496  -0.917   3.396  0.00  0.00    +0.000 F 
ATOM     15  F3  UNL     1      -0.579  -1.317   2.470  0.00  0.00    +0.000 F 
ENDBRANCH  12  13
ENDBRANCH   6   7
BRANCH   1  17
ATOM     16  O1  UNL     1       1.523   0.896  -1.875  0.00  0.00    +0.000 OA
ATOM     17  C1  UNL     1       1.396   0.611  -0.690  0.00  0.00    +0.000 C 
BRANCH  17  18
ATOM     18  C2  UNL     1       1.621   1.644   0.357  0.00  0.00    +0.000 C 
ATOM     19  C3  UNL     1       2.849   2.522   0.288  0.00  0.00    +0.000 C 
ATOM     20  C4  UNL     1       2.734   1.487   1.366  0.00  0.00    +0.000 C 
ENDBRANCH  17  18
ENDBRANCH   1  17
TORSDOF 4
