REMARK  Name = ligantes_elite\Elite_094.pdb
REMARK  7 active torsions:
REMARK  status: ('A' for Active; 'I' for Inactive)
REMARK    1  A    between atoms: C1_1  and  C2_2
REMARK    2  A    between atoms: C2_2  and  C3_3
REMARK    3  A    between atoms: C2_2  and  C4_4
REMARK    4  A    between atoms: C4_4  and  C5_6
REMARK    5  A    between atoms: C6_7  and  O2_8
REMARK    6  A    between atoms: C9_11  and  C10_12
REMARK    7  A    between atoms: C14_17  and  N2_18
REMARK                            x       y       z     vdW  Elec       q    Type
REMARK                         _______ _______ _______ _____ _____    ______ ____
ROOT
ATOM      1  C5  UNL     1       0.602   0.975  -0.681  0.00  0.00    +0.000 C 
ATOM      2  C6  UNL     1       0.881   1.812   0.565  0.00  0.00    +0.000 C 
ATOM      3  C7  UNL     1      -0.107   2.965   0.438  0.00  0.00    +0.000 C 
ATOM      4  C8  UNL     1      -1.386   2.303  -0.044  0.00  0.00    +0.000 C 
ATOM      5  C9  UNL     1      -0.934   1.096  -0.897  0.00  0.00    +0.000 C 
ENDROOT
BRANCH   5   6
ATOM      6  C10 UNL     1      -1.821  -0.110  -0.654  0.00  0.00    +0.000 C 
ATOM      7  C11 UNL     1      -2.701  -0.502  -1.668  0.00  0.00    +0.000 C 
ATOM      8  N1  UNL     1      -3.568  -1.536  -1.590  0.00  0.00    +0.000 NA
ATOM      9  C12 UNL     1      -3.558  -2.238  -0.445  0.00  0.00    +0.000 C 
ATOM     10  C13 UNL     1      -2.728  -1.947   0.624  0.00  0.00    +0.000 C 
ATOM     11  C14 UNL     1      -1.821  -0.889   0.512  0.00  0.00    +0.000 C 
BRANCH  11  12
ATOM     12  N2  UNL     1      -1.089  -0.502   1.654  0.00  0.00    +0.000 N 
ATOM     13  H   UNL     1      -0.445   0.240   1.598  0.00  0.00    +0.000 HD
ATOM     14  H   UNL     1      -1.222  -0.974   2.507  0.00  0.00    +0.000 HD
ENDBRANCH  11  12
ENDBRANCH   5   6
BRANCH   1  15
ATOM     15  C4  UNL     1       1.143  -0.450  -0.752  0.00  0.00    +0.000 C 
ATOM     16  O1  UNL     1       0.847  -1.159  -1.723  0.00  0.00    +0.000 OA
BRANCH  15  18
ATOM     17  C1  UNL     1       1.970  -2.440   0.531  0.00  0.00    +0.000 C 
ATOM     18  C2  UNL     1       2.155  -0.944   0.277  0.00  0.00    +0.000 C 
ATOM     19  C3  UNL     1       3.567  -0.659  -0.226  0.00  0.00    +0.000 C 
ENDBRANCH  15  18
ENDBRANCH   1  15
BRANCH   2  20
ATOM     20  O2  UNL     1       2.212   2.307   0.600  0.00  0.00    +0.000 OA
ATOM     21  H   UNL     1       2.380   2.840  -0.193  0.00  0.00    +0.000 HD
ENDBRANCH   2  20
TORSDOF 5
