REMARK  Name = ligantes_elite\Elite_180.pdb
REMARK  5 active torsions:
REMARK  status: ('A' for Active; 'I' for Inactive)
REMARK    1  A    between atoms: C1_1  and  C2_2
REMARK    2  A    between atoms: C2_2  and  C3_3
REMARK    3  A    between atoms: C3_3  and  C4_4
REMARK    4  A    between atoms: C4_4  and  C5_6
REMARK    5  A    between atoms: C9_11  and  C10_12
REMARK                            x       y       z     vdW  Elec       q    Type
REMARK                         _______ _______ _______ _____ _____    ______ ____
ROOT
ATOM      1  C5  UNL     1       0.062  -0.711  -0.578  0.00  0.00    +0.000 C 
ATOM      2  C6  UNL     1       0.406  -2.165  -0.258  0.00  0.00    +0.000 C 
ATOM      3  F1  UNL     1       1.725  -2.424  -0.385  0.00  0.00    +0.000 F 
ATOM      4  C7  UNL     1      -0.052  -2.403   1.172  0.00  0.00    +0.000 C 
ATOM      5  C8  UNL     1      -1.312  -1.561   1.285  0.00  0.00    +0.000 C 
ATOM      6  C9  UNL     1      -0.967  -0.288   0.495  0.00  0.00    +0.000 C 
ENDROOT
BRANCH   6   7
ATOM      7  C10 UNL     1      -2.158   0.518   0.018  0.00  0.00    +0.000 C 
ATOM      8  C11 UNL     1      -2.309   1.799   0.567  0.00  0.00    +0.000 C 
ATOM      9  N1  UNL     1      -3.305   2.667   0.282  0.00  0.00    +0.000 NA
ATOM     10  C12 UNL     1      -4.220   2.264  -0.614  0.00  0.00    +0.000 C 
ATOM     11  C13 UNL     1      -4.183   1.029  -1.229  0.00  0.00    +0.000 C 
ATOM     12  C14 UNL     1      -3.144   0.146  -0.909  0.00  0.00    +0.000 C 
ATOM     13  I1  UNL     1      -3.234  -1.697  -1.922  0.00  0.00    +0.000 I 
ENDBRANCH   6   7
BRANCH   1  14
ATOM     14  C4  UNL     1       1.268   0.221  -0.630  0.00  0.00    +0.000 C 
ATOM     15  O1  UNL     1       1.408   0.970  -1.602  0.00  0.00    +0.000 OA
BRANCH  14  16
ATOM     16  C3  UNL     1       2.213   0.303   0.562  0.00  0.00    +0.000 C 
BRANCH  16  18
ATOM     17  C1  UNL     1       4.382  -0.239  -0.635  0.00  0.00    +0.000 C 
ATOM     18  C2  UNL     1       3.612   0.788   0.183  0.00  0.00    +0.000 C 
ENDBRANCH  16  18
ENDBRANCH  14  16
ENDBRANCH   1  14
TORSDOF 4
