REMARK  Name = ligantes_elite\Elite_002.pdb
REMARK  5 active torsions:
REMARK  status: ('A' for Active; 'I' for Inactive)
REMARK    1  A    between atoms: C1_1  and  C2_2
REMARK    2  A    between atoms: C2_2  and  C3_3
REMARK    3  A    between atoms: C2_2  and  C4_4
REMARK    4  A    between atoms: C4_4  and  C5_6
REMARK    5  A    between atoms: C9_11  and  C10_12
REMARK                            x       y       z     vdW  Elec       q    Type
REMARK                         _______ _______ _______ _____ _____    ______ ____
ROOT
ATOM      1  C5  UNL     1      -0.490   0.023   1.030  0.00  0.00    +0.000 C 
ATOM      2  C6  UNL     1      -0.560  -1.493   1.066  0.00  0.00    +0.000 C 
ATOM      3  F1  UNL     1      -1.786  -1.890   1.492  0.00  0.00    +0.000 F 
ATOM      4  C7  UNL     1       0.491  -1.936   2.074  0.00  0.00    +0.000 C 
ATOM      5  C8  UNL     1       1.417  -0.738   2.288  0.00  0.00    +0.000 C 
ATOM      6  C9  UNL     1       1.009   0.331   1.253  0.00  0.00    +0.000 C 
ENDROOT
BRANCH   6   7
ATOM      7  C10 UNL     1       1.927   0.347   0.039  0.00  0.00    +0.000 C 
ATOM      8  C11 UNL     1       2.236  -0.818  -0.664  0.00  0.00    +0.000 C 
ATOM      9  N1  UNL     1       3.023  -0.888  -1.763  0.00  0.00    +0.000 NA
ATOM     10  C12 UNL     1       3.551   0.266  -2.208  0.00  0.00    +0.000 C 
ATOM     11  C13 UNL     1       3.338   1.482  -1.594  0.00  0.00    +0.000 C 
ATOM     12  C14 UNL     1       2.524   1.519  -0.460  0.00  0.00    +0.000 C 
ATOM     13 BR1  UNL     1       2.308   3.230   0.347  0.00  0.00    +0.000 Br
ENDBRANCH   6   7
BRANCH   1  14
ATOM     14  C4  UNL     1      -1.134   0.649  -0.205  0.00  0.00    +0.000 C 
ATOM     15  O1  UNL     1      -0.642   1.646  -0.737  0.00  0.00    +0.000 OA
BRANCH  14  17
ATOM     16  C1  UNL     1      -2.780   0.559  -2.112  0.00  0.00    +0.000 C 
ATOM     17  C2  UNL     1      -2.479   0.095  -0.686  0.00  0.00    +0.000 C 
ATOM     18  C3  UNL     1      -3.591   0.531   0.262  0.00  0.00    +0.000 C 
ENDBRANCH  14  17
ENDBRANCH   1  14
TORSDOF 3
