REMARK  Name = ligantes_elite\Elite_129.pdb
REMARK  6 active torsions:
REMARK  status: ('A' for Active; 'I' for Inactive)
REMARK    1  A    between atoms: C1_1  and  O1_2
REMARK    2  A    between atoms: O1_2  and  C2_3
REMARK    3  A    between atoms: C2_3  and  C3_5
REMARK    4  A    between atoms: C4_6  and  O3_7
REMARK    5  A    between atoms: C7_10  and  C8_11
REMARK    6  A    between atoms: C12_16  and  C13_17
REMARK                            x       y       z     vdW  Elec       q    Type
REMARK                         _______ _______ _______ _____ _____    ______ ____
ROOT
ATOM      1  C3  UNL     1      -0.969  -0.145  -0.282  0.00  0.00    +0.000 C 
ATOM      2  C4  UNL     1      -1.887  -1.370  -0.437  0.00  0.00    +0.000 C 
ATOM      3  C5  UNL     1      -0.992  -2.607  -0.350  0.00  0.00    +0.000 C 
ATOM      4  C6  UNL     1       0.409  -2.090  -0.643  0.00  0.00    +0.000 C 
ATOM      5  C7  UNL     1       0.417  -0.732   0.064  0.00  0.00    +0.000 C 
ENDROOT
BRANCH   5   6
ATOM      6  C8  UNL     1       1.598   0.134  -0.325  0.00  0.00    +0.000 C 
ATOM      7  C9  UNL     1       1.758   0.582  -1.636  0.00  0.00    +0.000 C 
ATOM      8  N1  UNL     1       2.770   1.369  -2.064  0.00  0.00    +0.000 NA
ATOM      9  C10 UNL     1       3.690   1.737  -1.154  0.00  0.00    +0.000 C 
ATOM     10  C11 UNL     1       3.647   1.344   0.169  0.00  0.00    +0.000 C 
ATOM     11  C12 UNL     1       2.591   0.529   0.590  0.00  0.00    +0.000 C 
BRANCH  11  12
ATOM     12  C13 UNL     1       2.584   0.105   1.963  0.00  0.00    +0.000 C 
ATOM     13  N2  UNL     1       2.610  -0.256   3.065  0.00  0.00    +0.000 NA
ENDBRANCH  11  12
ENDBRANCH   5   6
BRANCH   1  14
ATOM     14  C2  UNL     1      -1.476   0.786   0.796  0.00  0.00    +0.000 C 
ATOM     15  O2  UNL     1      -0.814   1.192   1.741  0.00  0.00    +0.000 OA
BRANCH  14  17
ATOM     16  C1  UNL     1      -3.311   2.073   1.479  0.00  0.00    +0.000 C 
ATOM     17  O1  UNL     1      -2.762   1.156   0.530  0.00  0.00    +0.000 OA
ENDBRANCH  14  17
ENDBRANCH   1  14
BRANCH   2  18
ATOM     18  O3  UNL     1      -2.500  -1.341  -1.724  0.00  0.00    +0.000 OA
ATOM     19  H   UNL     1      -1.813  -1.334  -2.409  0.00  0.00    +0.000 HD
ENDBRANCH   2  18
TORSDOF 5
