REMARK  Name = ligantes_elite\Elite_106.pdb
REMARK  6 active torsions:
REMARK  status: ('A' for Active; 'I' for Inactive)
REMARK    1  A    between atoms: C1_1  and  O1_2
REMARK    2  A    between atoms: O1_2  and  C2_3
REMARK    3  A    between atoms: C2_3  and  C3_5
REMARK    4  A    between atoms: C4_6  and  C5_7
REMARK    5  A    between atoms: C8_11  and  C9_12
REMARK    6  A    between atoms: C13_17  and  C14_18
REMARK                            x       y       z     vdW  Elec       q    Type
REMARK                         _______ _______ _______ _____ _____    ______ ____
ROOT
ATOM      1  C3  UNL     1      -1.028   0.009  -0.432  0.00  0.00    +0.000 C 
ATOM      2  C4  UNL     1      -1.757  -1.228  -0.978  0.00  0.00    +0.000 C 
ATOM      3  C6  UNL     1      -0.825  -2.397  -0.674  0.00  0.00    +0.000 C 
ATOM      4  C7  UNL     1       0.572  -1.789  -0.508  0.00  0.00    +0.000 C 
ATOM      5  C8  UNL     1       0.451  -0.279  -0.802  0.00  0.00    +0.000 C 
ENDROOT
BRANCH   5   6
ATOM      6  C9  UNL     1       1.503   0.670  -0.242  0.00  0.00    +0.000 C 
ATOM      7  C10 UNL     1       1.186   2.028  -0.109  0.00  0.00    +0.000 C 
ATOM      8  N1  UNL     1       2.015   2.989   0.360  0.00  0.00    +0.000 NA
ATOM      9  C11 UNL     1       3.257   2.612   0.702  0.00  0.00    +0.000 C 
ATOM     10  C12 UNL     1       3.709   1.317   0.571  0.00  0.00    +0.000 C 
ATOM     11  C13 UNL     1       2.833   0.338   0.078  0.00  0.00    +0.000 C 
BRANCH  11  12
ATOM     12  C14 UNL     1       3.400  -0.967  -0.109  0.00  0.00    +0.000 C 
ATOM     13  N2  UNL     1       3.897  -2.005  -0.260  0.00  0.00    +0.000 NA
ENDBRANCH  11  12
ENDBRANCH   5   6
BRANCH   1  14
ATOM     14  C2  UNL     1      -1.234   0.189   1.066  0.00  0.00    +0.000 C 
ATOM     15  O2  UNL     1      -1.026  -0.674   1.907  0.00  0.00    +0.000 OA
BRANCH  14  17
ATOM     16  C1  UNL     1      -1.889   1.717   2.716  0.00  0.00    +0.000 C 
ATOM     17  O1  UNL     1      -1.682   1.447   1.329  0.00  0.00    +0.000 OA
ENDBRANCH  14  17
ENDBRANCH   1  14
BRANCH   2  18
ATOM     18  C5  UNL     1      -3.172  -1.428  -0.467  0.00  0.00    +0.000 C 
ATOM     19  F1  UNL     1      -3.893  -0.311  -0.755  0.00  0.00    +0.000 F 
ENDBRANCH   2  18
TORSDOF 5
