REMARK  Name = ligantes_elite\Elite_052.pdb
REMARK  7 active torsions:
REMARK  status: ('A' for Active; 'I' for Inactive)
REMARK    1  A    between atoms: C1_1  and  C2_2
REMARK    2  A    between atoms: C2_2  and  C3_3
REMARK    3  A    between atoms: C2_2  and  C4_4
REMARK    4  A    between atoms: C4_4  and  C5_6
REMARK    5  A    between atoms: C6_7  and  C7_8
REMARK    6  A    between atoms: C10_12  and  C11_13
REMARK    7  A    between atoms: C15_18  and  C16_19
REMARK                            x       y       z     vdW  Elec       q    Type
REMARK                         _______ _______ _______ _____ _____    ______ ____
ROOT
ATOM      1  C5  UNL     1       0.117   0.540  -1.084  0.00  0.00    +0.000 C 
ATOM      2  C6  UNL     1       0.224   1.932  -1.755  0.00  0.00    +0.000 C 
ATOM      3  C8  UNL     1      -1.003   2.648  -1.187  0.00  0.00    +0.000 C 
ATOM      4  C9  UNL     1      -1.044   2.244   0.281  0.00  0.00    +0.000 C 
ATOM      5  C10 UNL     1      -0.399   0.841   0.352  0.00  0.00    +0.000 C 
ENDROOT
BRANCH   5   6
ATOM      6  C11 UNL     1      -1.394  -0.165   0.911  0.00  0.00    +0.000 C 
ATOM      7  C12 UNL     1      -2.511  -0.556   0.171  0.00  0.00    +0.000 C 
ATOM      8  N1  UNL     1      -3.444  -1.438   0.590  0.00  0.00    +0.000 NA
ATOM      9  C13 UNL     1      -3.293  -1.958   1.822  0.00  0.00    +0.000 C 
ATOM     10  C14 UNL     1      -2.247  -1.627   2.659  0.00  0.00    +0.000 C 
ATOM     11  C15 UNL     1      -1.290  -0.714   2.203  0.00  0.00    +0.000 C 
BRANCH  11  12
ATOM     12  C16 UNL     1      -0.224  -0.368   3.100  0.00  0.00    +0.000 C 
ATOM     13  N2  UNL     1       0.643  -0.104   3.825  0.00  0.00    +0.000 NA
ENDBRANCH  11  12
ENDBRANCH   5   6
BRANCH   1  14
ATOM     14  C4  UNL     1       1.407  -0.279  -1.212  0.00  0.00    +0.000 C 
ATOM     15  O1  UNL     1       2.161  -0.089  -2.172  0.00  0.00    +0.000 OA
BRANCH  14  17
ATOM     16  C1  UNL     1       0.863  -2.658  -0.692  0.00  0.00    +0.000 C 
ATOM     17  C2  UNL     1       1.660  -1.437  -0.249  0.00  0.00    +0.000 C 
ATOM     18  C3  UNL     1       3.152  -1.764  -0.178  0.00  0.00    +0.000 C 
ENDBRANCH  14  17
ENDBRANCH   1  14
BRANCH   2  19
ATOM     19  C7  UNL     1       1.510   2.709  -1.449  0.00  0.00    +0.000 C 
ATOM     20  F1  UNL     1       1.751   2.703  -0.112  0.00  0.00    +0.000 F 
ENDBRANCH   2  19
TORSDOF 5
