REMARK  Name = ligantes_elite\Elite_053.pdb
REMARK  5 active torsions:
REMARK  status: ('A' for Active; 'I' for Inactive)
REMARK    1  A    between atoms: C1_1  and  C2_2
REMARK    2  A    between atoms: C5_5  and  C6_6
REMARK    3  A    between atoms: C10_11  and  C11_12
REMARK    4  A    between atoms: C12_15  and  C13_16
REMARK    5  A    between atoms: C13_16  and  C14_18
REMARK                            x       y       z     vdW  Elec       q    Type
REMARK                         _______ _______ _______ _____ _____    ______ ____
ROOT
ATOM      1  C1  UNL     1      -2.455  -2.133   0.809  0.00  0.00    +0.000 C 
ATOM      2  C2  UNL     1      -1.883  -1.304  -0.333  0.00  0.00    +0.000 C 
ATOM      3  C3  UNL     1      -1.082  -2.149  -1.315  0.00  0.00    +0.000 C 
ATOM      4  C4  UNL     1      -0.255  -1.117  -2.067  0.00  0.00    +0.000 C 
ATOM      5  C5  UNL     1       0.132  -0.051  -1.021  0.00  0.00    +0.000 C 
ATOM      6  C12 UNL     1      -0.890  -0.223   0.137  0.00  0.00    +0.000 C 
ENDROOT
BRANCH   5   7
ATOM      7  C6  UNL     1       1.571  -0.127  -0.523  0.00  0.00    +0.000 C 
ATOM      8  C7  UNL     1       2.207  -1.356  -0.327  0.00  0.00    +0.000 C 
ATOM      9  N1  UNL     1       3.473  -1.514   0.119  0.00  0.00    +0.000 NA
ATOM     10  C8  UNL     1       4.162  -0.396   0.405  0.00  0.00    +0.000 C 
ATOM     11  C9  UNL     1       3.638   0.874   0.263  0.00  0.00    +0.000 C 
ATOM     12  C10 UNL     1       2.323   1.028  -0.205  0.00  0.00    +0.000 C 
BRANCH  12  13
ATOM     13  C11 UNL     1       1.768   2.426  -0.334  0.00  0.00    +0.000 C 
ATOM     14  F1  UNL     1       2.655   3.398   0.027  0.00  0.00    +0.000 F 
ATOM     15  F2  UNL     1       0.680   2.620   0.462  0.00  0.00    +0.000 F 
ENDBRANCH  12  13
ENDBRANCH   5   7
BRANCH   6  16
ATOM     16  C13 UNL     1      -1.641   1.070   0.394  0.00  0.00    +0.000 C 
ATOM     17  O1  UNL     1      -2.033   1.827  -0.492  0.00  0.00    +0.000 OA
BRANCH  16  18
ATOM     18  C14 UNL     1      -1.953   1.416   1.855  0.00  0.00    +0.000 C 
ATOM     19  N2  UNL     1      -2.553   2.632   2.030  0.00  0.00    +0.000 N 
ATOM     20  O2  UNL     1      -1.685   0.656   2.770  0.00  0.00    +0.000 OA
ATOM     21  H   UNL     1      -2.745   3.203   1.251  0.00  0.00    +0.000 HD
ATOM     22  H   UNL     1      -2.793   2.937   2.935  0.00  0.00    +0.000 HD
ENDBRANCH  16  18
ENDBRANCH   6  16
TORSDOF 4
