REMARK  Name = ligantes_elite\Elite_176.pdb
REMARK  6 active torsions:
REMARK  status: ('A' for Active; 'I' for Inactive)
REMARK    1  A    between atoms: C1_1  and  C2_2
REMARK    2  A    between atoms: C2_2  and  C3_3
REMARK    3  A    between atoms: C2_2  and  C4_4
REMARK    4  A    between atoms: C4_4  and  C5_6
REMARK    5  A    between atoms: C6_7  and  C7_8
REMARK    6  A    between atoms: C10_12  and  C11_13
REMARK                            x       y       z     vdW  Elec       q    Type
REMARK                         _______ _______ _______ _____ _____    ______ ____
ROOT
ATOM      1  C5  UNL     1      -0.362  -0.738  -0.132  0.00  0.00    +0.000 C 
ATOM      2  C6  UNL     1      -0.727  -2.238  -0.252  0.00  0.00    +0.000 C 
ATOM      3  C8  UNL     1       0.579  -2.960  -0.592  0.00  0.00    +0.000 C 
ATOM      4  C9  UNL     1       1.671  -2.054  -0.046  0.00  0.00    +0.000 C 
ATOM      5  C10 UNL     1       1.158  -0.649  -0.394  0.00  0.00    +0.000 C 
ENDROOT
BRANCH   5   6
ATOM      6  C11 UNL     1       1.836   0.471   0.366  0.00  0.00    +0.000 C 
ATOM      7  C12 UNL     1       1.922   0.432   1.759  0.00  0.00    +0.000 C 
ATOM      8  N1  UNL     1       2.485   1.387   2.533  0.00  0.00    +0.000 NA
ATOM      9  C13 UNL     1       3.000   2.457   1.902  0.00  0.00    +0.000 C 
ATOM     10  C14 UNL     1       2.970   2.617   0.532  0.00  0.00    +0.000 C 
ATOM     11  C15 UNL     1       2.378   1.615  -0.239  0.00  0.00    +0.000 C 
ATOM     12 BR1  UNL     1       2.346   1.912  -2.116  0.00  0.00    +0.000 Br
ENDBRANCH   5   6
BRANCH   1  13
ATOM     13  C4  UNL     1      -1.155   0.070  -1.154  0.00  0.00    +0.000 C 
ATOM     14  O1  UNL     1      -0.956  -0.069  -2.362  0.00  0.00    +0.000 OA
BRANCH  13  16
ATOM     15  C1  UNL     1      -1.548   2.292  -0.078  0.00  0.00    +0.000 C 
ATOM     16  C2  UNL     1      -2.213   1.029  -0.612  0.00  0.00    +0.000 C 
ATOM     17  C3  UNL     1      -3.241   1.373  -1.687  0.00  0.00    +0.000 C 
ENDBRANCH  13  16
ENDBRANCH   1  13
BRANCH   2  18
ATOM     18  C7  UNL     1      -1.344  -2.751   1.044  0.00  0.00    +0.000 C 
ATOM     19  F1  UNL     1      -2.473  -2.034   1.295  0.00  0.00    +0.000 F 
ENDBRANCH   2  18
TORSDOF 4
