REMARK  Name = ligantes_elite\Elite_084.pdb
REMARK  5 active torsions:
REMARK  status: ('A' for Active; 'I' for Inactive)
REMARK    1  A    between atoms: C1_2  and  C2_3
REMARK    2  A    between atoms: C1_2  and  C5_6
REMARK    3  A    between atoms: C6_7  and  C7_8
REMARK    4  A    between atoms: C10_12  and  C11_13
REMARK    5  A    between atoms: C15_18  and  C16_19
REMARK                            x       y       z     vdW  Elec       q    Type
REMARK                         _______ _______ _______ _____ _____    ______ ____
ROOT
ATOM      1  C5  UNL     1      -0.836   1.058   0.289  0.00  0.00    +0.000 C 
ATOM      2  C6  UNL     1      -0.645   2.477  -0.281  0.00  0.00    +0.000 C 
ATOM      3  C8  UNL     1       0.276   3.127   0.747  0.00  0.00    +0.000 C 
ATOM      4  C9  UNL     1       1.307   2.042   1.018  0.00  0.00    +0.000 C 
ATOM      5  C10 UNL     1       0.526   0.708   0.947  0.00  0.00    +0.000 C 
ENDROOT
BRANCH   5   6
ATOM      6  C11 UNL     1       1.352  -0.399   0.321  0.00  0.00    +0.000 C 
ATOM      7  C12 UNL     1       1.823  -0.280  -0.991  0.00  0.00    +0.000 C 
ATOM      8  N1  UNL     1       2.576  -1.202  -1.630  0.00  0.00    +0.000 NA
ATOM      9  C13 UNL     1       2.876  -2.319  -0.945  0.00  0.00    +0.000 C 
ATOM     10  C14 UNL     1       2.461  -2.553   0.353  0.00  0.00    +0.000 C 
ATOM     11  C15 UNL     1       1.684  -1.586   1.009  0.00  0.00    +0.000 C 
BRANCH  11  12
ATOM     12  C16 UNL     1       1.241  -1.856   2.423  0.00  0.00    +0.000 C 
ATOM     13  F2  UNL     1      -0.111  -1.774   2.573  0.00  0.00    +0.000 F 
ENDBRANCH  11  12
ENDBRANCH   5   6
BRANCH   1  15
ATOM     14  O1  UNL     1      -1.417   0.349  -1.946  0.00  0.00    +0.000 OA
ATOM     15  C1  UNL     1      -1.354   0.080  -0.751  0.00  0.00    +0.000 C 
BRANCH  15  16
ATOM     16  C2  UNL     1      -1.823  -1.240  -0.234  0.00  0.00    +0.000 C 
ATOM     17  C3  UNL     1      -1.422  -2.508  -0.948  0.00  0.00    +0.000 C 
ATOM     18  C4  UNL     1      -2.848  -2.042  -1.000  0.00  0.00    +0.000 C 
ENDBRANCH  15  16
ENDBRANCH   1  15
BRANCH   2  19
ATOM     19  C7  UNL     1      -1.953   3.230  -0.462  0.00  0.00    +0.000 C 
ATOM     20  F1  UNL     1      -2.608   3.288   0.729  0.00  0.00    +0.000 F 
ENDBRANCH   2  19
TORSDOF 5
