REMARK  Name = ligantes_elite\Elite_069.pdb
REMARK  7 active torsions:
REMARK  status: ('A' for Active; 'I' for Inactive)
REMARK    1  A    between atoms: C1_1  and  C2_2
REMARK    2  A    between atoms: C2_2  and  C3_3
REMARK    3  A    between atoms: C3_3  and  C4_4
REMARK    4  A    between atoms: C4_4  and  C5_6
REMARK    5  A    between atoms: C6_7  and  C7_8
REMARK    6  A    between atoms: C10_12  and  C11_13
REMARK    7  A    between atoms: C15_18  and  C16_19
REMARK                            x       y       z     vdW  Elec       q    Type
REMARK                         _______ _______ _______ _____ _____    ______ ____
ROOT
ATOM      1  C5  UNL     1       0.158  -0.461  -0.109  0.00  0.00    +0.000 C 
ATOM      2  C6  UNL     1      -0.300  -1.809   0.469  0.00  0.00    +0.000 C 
ATOM      3  C8  UNL     1      -0.790  -2.623  -0.729  0.00  0.00    +0.000 C 
ATOM      4  C9  UNL     1      -1.105  -1.611  -1.836  0.00  0.00    +0.000 C 
ATOM      5  C10 UNL     1      -0.836  -0.204  -1.261  0.00  0.00    +0.000 C 
ENDROOT
BRANCH   5   6
ATOM      6  C11 UNL     1      -2.070   0.558  -0.787  0.00  0.00    +0.000 C 
ATOM      7  C12 UNL     1      -3.221  -0.088  -0.342  0.00  0.00    +0.000 C 
ATOM      8  N1  UNL     1      -4.335   0.538   0.102  0.00  0.00    +0.000 NA
ATOM      9  C13 UNL     1      -4.326   1.883   0.115  0.00  0.00    +0.000 C 
ATOM     10  C14 UNL     1      -3.244   2.635  -0.294  0.00  0.00    +0.000 C 
ATOM     11  C15 UNL     1      -2.103   1.966  -0.747  0.00  0.00    +0.000 C 
BRANCH  11  12
ATOM     12  C16 UNL     1      -0.981   2.761  -1.156  0.00  0.00    +0.000 C 
ATOM     13  N2  UNL     1      -0.063   3.394  -1.478  0.00  0.00    +0.000 NA
ENDBRANCH  11  12
ENDBRANCH   5   6
BRANCH   1  14
ATOM     14  C4  UNL     1       1.587  -0.482  -0.655  0.00  0.00    +0.000 C 
ATOM     15  O1  UNL     1       2.001  -1.418  -1.341  0.00  0.00    +0.000 OA
BRANCH  14  16
ATOM     16  C3  UNL     1       2.479   0.699  -0.334  0.00  0.00    +0.000 C 
BRANCH  16  18
ATOM     17  C1  UNL     1       4.023   1.715   1.371  0.00  0.00    +0.000 C 
ATOM     18  C2  UNL     1       3.061   0.578   1.068  0.00  0.00    +0.000 C 
ENDBRANCH  16  18
ENDBRANCH  14  16
ENDBRANCH   1  14
BRANCH   2  19
ATOM     19  C7  UNL     1       0.725  -2.536   1.324  0.00  0.00    +0.000 C 
ATOM     20  F1  UNL     1       1.098  -1.707   2.337  0.00  0.00    +0.000 F 
ENDBRANCH   2  19
TORSDOF 6
