REMARK  Name = ligantes_elite\Elite_166.pdb
REMARK  6 active torsions:
REMARK  status: ('A' for Active; 'I' for Inactive)
REMARK    1  A    between atoms: C1_1  and  C2_2
REMARK    2  A    between atoms: C2_2  and  C3_3
REMARK    3  A    between atoms: C3_3  and  C4_4
REMARK    4  A    between atoms: C4_4  and  C5_6
REMARK    5  A    between atoms: C6_7  and  C7_8
REMARK    6  A    between atoms: C10_11  and  C11_12
REMARK                            x       y       z     vdW  Elec       q    Type
REMARK                         _______ _______ _______ _____ _____    ______ ____
ROOT
ATOM      1  C5  UNL     1      -0.052  -0.593   0.540  0.00  0.00    +0.000 C 
ATOM      2  C6  UNL     1      -0.601  -2.039   0.434  0.00  0.00    +0.000 C 
ATOM      3  C7  UNL     1      -0.971  -2.621   1.794  0.00  0.00    +0.000 C 
ATOM      4  C8  UNL     1       0.500  -2.859  -0.255  0.00  0.00    +0.000 C 
ATOM      5  C9  UNL     1       1.352  -1.829  -0.983  0.00  0.00    +0.000 C 
ATOM      6  C10 UNL     1       1.402  -0.671   0.024  0.00  0.00    +0.000 C 
ENDROOT
BRANCH   6   7
ATOM      7  C11 UNL     1       2.024   0.634  -0.416  0.00  0.00    +0.000 C 
ATOM      8  C12 UNL     1       2.091   0.995  -1.761  0.00  0.00    +0.000 C 
ATOM      9  N1  UNL     1       2.635   2.144  -2.229  0.00  0.00    +0.000 NA
ATOM     10  C13 UNL     1       3.137   3.000  -1.322  0.00  0.00    +0.000 C 
ATOM     11  C14 UNL     1       3.116   2.764   0.036  0.00  0.00    +0.000 C 
ATOM     12  C15 UNL     1       2.552   1.571   0.487  0.00  0.00    +0.000 C 
ATOM     13 BR1  UNL     1       2.539   1.302   2.371  0.00  0.00    +0.000 Br
ENDBRANCH   6   7
BRANCH   1  14
ATOM     14  C4  UNL     1      -0.917   0.352  -0.294  0.00  0.00    +0.000 C 
ATOM     15  O1  UNL     1      -1.156   0.133  -1.483  0.00  0.00    +0.000 OA
BRANCH  14  16
ATOM     16  C3  UNL     1      -1.475   1.583   0.394  0.00  0.00    +0.000 C 
BRANCH  16  18
ATOM     17  C1  UNL     1      -3.851   0.731   0.636  0.00  0.00    +0.000 C 
ATOM     18  C2  UNL     1      -2.613   1.250   1.352  0.00  0.00    +0.000 C 
ENDBRANCH  16  18
ENDBRANCH  14  16
ENDBRANCH   1  14
TORSDOF 4
