REMARK  Name = ligantes_elite\Elite_092.pdb
REMARK  5 active torsions:
REMARK  status: ('A' for Active; 'I' for Inactive)
REMARK    1  A    between atoms: N1_1  and  C1_2
REMARK    2  A    between atoms: C5_7  and  C6_8
REMARK    3  A    between atoms: C9_11  and  C10_12
REMARK    4  A    between atoms: C11_14  and  C12_15
REMARK    5  A    between atoms: C12_15  and  C13_17
REMARK                            x       y       z     vdW  Elec       q    Type
REMARK                         _______ _______ _______ _____ _____    ______ ____
ROOT
ATOM      1  C6  UNL     1       0.693   0.562   0.554  0.00  0.00    +0.000 C 
ATOM      2  C7  UNL     1       1.392   1.942   0.537  0.00  0.00    +0.000 C 
ATOM      3  C8  UNL     1       0.275   2.973   0.458  0.00  0.00    +0.000 C 
ATOM      4  C9  UNL     1      -0.808   2.268  -0.356  0.00  0.00    +0.000 C 
ATOM      5  C11 UNL     1      -0.802   0.851   0.243  0.00  0.00    +0.000 C 
ENDROOT
BRANCH   1  11
ATOM      6  C1  UNL     1       2.104  -1.552   0.186  0.00  0.00    +0.000 C 
ATOM      7  C2  UNL     1       2.640  -2.481  -0.711  0.00  0.00    +0.000 C 
ATOM      8  C3  UNL     1       2.600  -2.213  -2.067  0.00  0.00    +0.000 C 
ATOM      9  N2  UNL     1       2.039  -1.109  -2.588  0.00  0.00    +0.000 NA
ATOM     10  C4  UNL     1       1.463  -0.256  -1.715  0.00  0.00    +0.000 C 
ATOM     11  C5  UNL     1       1.430  -0.429  -0.326  0.00  0.00    +0.000 C 
BRANCH   6  12
ATOM     12  N1  UNL     1       2.080  -1.887   1.552  0.00  0.00    +0.000 N 
ATOM     13  H   UNL     1       2.565  -2.682   1.873  0.00  0.00    +0.000 HD
ATOM     14  H   UNL     1       1.578  -1.327   2.187  0.00  0.00    +0.000 HD
ENDBRANCH   6  12
ENDBRANCH   1  11
BRANCH   4  15
ATOM     15  C10 UNL     1      -2.152   2.973  -0.255  0.00  0.00    +0.000 C 
ATOM     16  F1  UNL     1      -2.012   4.245  -0.719  0.00  0.00    +0.000 F 
ENDBRANCH   4  15
BRANCH   5  17
ATOM     17  C12 UNL     1      -1.535  -0.174  -0.606  0.00  0.00    +0.000 C 
ATOM     18  O1  UNL     1      -2.120   0.117  -1.643  0.00  0.00    +0.000 OA
BRANCH  17  19
ATOM     19  C13 UNL     1      -1.571  -1.579  -0.118  0.00  0.00    +0.000 C 
ATOM     20  C14 UNL     1      -1.810  -1.937   1.328  0.00  0.00    +0.000 C 
ATOM     21  C15 UNL     1      -2.890  -2.175   0.315  0.00  0.00    +0.000 C 
ENDBRANCH  17  19
ENDBRANCH   5  17
TORSDOF 5
