REMARK  Name = ligantes_elite\Elite_070.pdb
REMARK  4 active torsions:
REMARK  status: ('A' for Active; 'I' for Inactive)
REMARK    1  A    between atoms: C1_1  and  C2_2
REMARK    2  A    between atoms: C2_2  and  C3_3
REMARK    3  A    between atoms: C3_3  and  C4_5
REMARK    4  A    between atoms: C8_10  and  C9_11
REMARK                            x       y       z     vdW  Elec       q    Type
REMARK                         _______ _______ _______ _____ _____    ______ ____
ROOT
ATOM      1  C4  UNL     1       0.687  -0.154  -0.819  0.00  0.00    +0.000 C 
ATOM      2  C5  UNL     1       1.334  -1.385  -1.434  0.00  0.00    +0.000 C 
ATOM      3  F1  UNL     1       2.674  -1.386  -1.287  0.00  0.00    +0.000 F 
ATOM      4  C6  UNL     1       0.692  -2.573  -0.737  0.00  0.00    +0.000 C 
ATOM      5  C7  UNL     1      -0.682  -2.079  -0.277  0.00  0.00    +0.000 C 
ATOM      6  C8  UNL     1      -0.788  -0.601  -0.717  0.00  0.00    +0.000 C 
ENDROOT
BRANCH   6   7
ATOM      7  C9  UNL     1      -1.726   0.298   0.052  0.00  0.00    +0.000 C 
ATOM      8  C10 UNL     1      -1.627   1.684  -0.028  0.00  0.00    +0.000 C 
ATOM      9  N1  UNL     1      -2.440   2.559   0.609  0.00  0.00    +0.000 NA
ATOM     10  C11 UNL     1      -3.429   2.040   1.363  0.00  0.00    +0.000 C 
ATOM     11  C12 UNL     1      -3.651   0.686   1.488  0.00  0.00    +0.000 C 
ATOM     12  C13 UNL     1      -2.795  -0.174   0.814  0.00  0.00    +0.000 C 
ATOM     13  F2  UNL     1      -3.046  -1.488   0.897  0.00  0.00    +0.000 F 
ENDBRANCH   6   7
BRANCH   1  14
ATOM     14  C3  UNL     1       1.330   0.190   0.524  0.00  0.00    +0.000 C 
ATOM     15  O1  UNL     1       1.135  -0.483   1.536  0.00  0.00    +0.000 OA
BRANCH  14  17
ATOM     16  C1  UNL     1       3.513   1.240  -0.172  0.00  0.00    +0.000 C 
ATOM     17  C2  UNL     1       2.212   1.424   0.582  0.00  0.00    +0.000 C 
ENDBRANCH  14  17
ENDBRANCH   1  14
TORSDOF 3
