REMARK  Name = ligantes_elite\Elite_005.pdb
REMARK  3 active torsions:
REMARK  status: ('A' for Active; 'I' for Inactive)
REMARK    1  A    between atoms: C1_2  and  C2_4
REMARK    2  A    between atoms: C2_4  and  C3_6
REMARK    3  A    between atoms: C7_11  and  C8_12
REMARK                            x       y       z     vdW  Elec       q    Type
REMARK                         _______ _______ _______ _____ _____    ______ ____
ROOT
ATOM      1  C3  UNL     1       0.878  -0.608   0.871  0.00  0.00    +0.000 C 
ATOM      2  C4  UNL     1       1.593  -1.943   1.041  0.00  0.00    +0.000 C 
ATOM      3  F1  UNL     1       1.206  -2.473   2.239  0.00  0.00    +0.000 F 
ATOM      4  C5  UNL     1       1.076  -2.867  -0.062  0.00  0.00    +0.000 C 
ATOM      5  C6  UNL     1      -0.096  -2.134  -0.718  0.00  0.00    +0.000 C 
ATOM      6  C7  UNL     1      -0.476  -1.026   0.273  0.00  0.00    +0.000 C 
ENDROOT
BRANCH   6   7
ATOM      7  C8  UNL     1      -1.325   0.111  -0.228  0.00  0.00    +0.000 C 
ATOM      8  C9  UNL     1      -1.520   0.423  -1.566  0.00  0.00    +0.000 C 
ATOM      9  N2  UNL     1      -2.261   1.469  -2.004  0.00  0.00    +0.000 NA
ATOM     10  C10 UNL     1      -2.852   2.246  -1.072  0.00  0.00    +0.000 C 
ATOM     11  C11 UNL     1      -2.737   2.025   0.283  0.00  0.00    +0.000 C 
ATOM     12  C12 UNL     1      -1.967   0.947   0.688  0.00  0.00    +0.000 C 
ATOM     13  F2  UNL     1      -1.839   0.708   2.001  0.00  0.00    +0.000 F 
ENDBRANCH   6   7
BRANCH   1  14
ATOM     14  C2  UNL     1       1.685   0.289  -0.042  0.00  0.00    +0.000 C 
ATOM     15  O2  UNL     1       2.348  -0.111  -0.996  0.00  0.00    +0.000 OA
BRANCH  14  17
ATOM     16  N1  UNL     1       2.184   2.566  -0.754  0.00  0.00    +0.000 N 
ATOM     17  C1  UNL     1       1.623   1.798   0.227  0.00  0.00    +0.000 C 
ATOM     18  O1  UNL     1       1.116   2.252   1.237  0.00  0.00    +0.000 OA
ATOM     19  H   UNL     1       2.191   3.547  -0.668  0.00  0.00    +0.000 HD
ATOM     20  H   UNL     1       2.581   2.139  -1.547  0.00  0.00    +0.000 HD
ENDBRANCH  14  17
ENDBRANCH   1  14
TORSDOF 3
