REMARK  Name = ligantes_elite\Elite_156.pdb
REMARK  6 active torsions:
REMARK  status: ('A' for Active; 'I' for Inactive)
REMARK    1  A    between atoms: C1_1  and  C2_2
REMARK    2  A    between atoms: C2_2  and  C3_3
REMARK    3  A    between atoms: C3_3  and  C4_4
REMARK    4  A    between atoms: C4_4  and  C5_6
REMARK    5  A    between atoms: C6_7  and  C7_8
REMARK    6  A    between atoms: C10_12  and  C11_13
REMARK                            x       y       z     vdW  Elec       q    Type
REMARK                         _______ _______ _______ _____ _____    ______ ____
ROOT
ATOM      1  C5  UNL     1       0.166  -0.244  -0.809  0.00  0.00    +0.000 C 
ATOM      2  C6  UNL     1       0.855  -1.611  -0.684  0.00  0.00    +0.000 C 
ATOM      3  C8  UNL     1      -0.266  -2.516  -0.186  0.00  0.00    +0.000 C 
ATOM      4  C9  UNL     1      -0.972  -1.661   0.856  0.00  0.00    +0.000 C 
ATOM      5  C10 UNL     1      -0.853  -0.203   0.359  0.00  0.00    +0.000 C 
ENDROOT
BRANCH   5   6
ATOM      6  C11 UNL     1      -2.183   0.409  -0.039  0.00  0.00    +0.000 C 
ATOM      7  C12 UNL     1      -3.021  -0.245  -0.945  0.00  0.00    +0.000 C 
ATOM      8  N1  UNL     1      -4.216   0.217  -1.376  0.00  0.00    +0.000 NA
ATOM      9  C13 UNL     1      -4.615   1.409  -0.897  0.00  0.00    +0.000 C 
ATOM     10  C14 UNL     1      -3.875   2.154  -0.001  0.00  0.00    +0.000 C 
ATOM     11  C15 UNL     1      -2.648   1.646   0.429  0.00  0.00    +0.000 C 
ATOM     12 BR1  UNL     1      -1.681   2.723   1.661  0.00  0.00    +0.000 Br
ENDBRANCH   5   6
BRANCH   1  13
ATOM     13  C4  UNL     1       1.062   0.995  -0.803  0.00  0.00    +0.000 C 
ATOM     14  O1  UNL     1       0.633   2.051  -1.281  0.00  0.00    +0.000 OA
BRANCH  13  15
ATOM     15  C3  UNL     1       2.426   0.975  -0.141  0.00  0.00    +0.000 C 
BRANCH  15  17
ATOM     16  C1  UNL     1       3.700   1.243   2.013  0.00  0.00    +0.000 C 
ATOM     17  C2  UNL     1       2.329   1.078   1.375  0.00  0.00    +0.000 C 
ENDBRANCH  15  17
ENDBRANCH  13  15
ENDBRANCH   1  13
BRANCH   2  18
ATOM     18  C7  UNL     1       1.452  -2.099  -1.994  0.00  0.00    +0.000 C 
ATOM     19  F1  UNL     1       2.440  -1.246  -2.367  0.00  0.00    +0.000 F 
ENDBRANCH   2  18
TORSDOF 5
