REMARK  Name = ligantes_elite\Elite_028.pdb
REMARK  5 active torsions:
REMARK  status: ('A' for Active; 'I' for Inactive)
REMARK    1  A    between atoms: C1_1  and  C2_2
REMARK    2  A    between atoms: C2_2  and  C3_3
REMARK    3  A    between atoms: C3_3  and  C4_5
REMARK    4  A    between atoms: C8_10  and  C9_11
REMARK    5  A    between atoms: C13_16  and  C14_17
REMARK                            x       y       z     vdW  Elec       q    Type
REMARK                         _______ _______ _______ _____ _____    ______ ____
ROOT
ATOM      1  C4  UNL     1       0.799  -0.417  -0.416  0.00  0.00    +0.000 C 
ATOM      2  C5  UNL     1       1.456  -1.766  -0.648  0.00  0.00    +0.000 C 
ATOM      3  F1  UNL     1       2.541  -1.631  -1.445  0.00  0.00    +0.000 F 
ATOM      4  C6  UNL     1       0.383  -2.560  -1.366  0.00  0.00    +0.000 C 
ATOM      5  C7  UNL     1      -0.909  -2.176  -0.655  0.00  0.00    +0.000 C 
ATOM      6  C8  UNL     1      -0.638  -0.806   0.007  0.00  0.00    +0.000 C 
ENDROOT
BRANCH   6   7
ATOM      7  C9  UNL     1      -1.685   0.235  -0.339  0.00  0.00    +0.000 C 
ATOM      8  C10 UNL     1      -1.847   0.675  -1.653  0.00  0.00    +0.000 C 
ATOM      9  N1  UNL     1      -2.739   1.609  -2.049  0.00  0.00    +0.000 NA
ATOM     10  C11 UNL     1      -3.528   2.145  -1.100  0.00  0.00    +0.000 C 
ATOM     11  C12 UNL     1      -3.472   1.779   0.230  0.00  0.00    +0.000 C 
ATOM     12  C13 UNL     1      -2.543   0.807   0.617  0.00  0.00    +0.000 C 
BRANCH  12  13
ATOM     13  C14 UNL     1      -2.534   0.408   1.997  0.00  0.00    +0.000 C 
ATOM     14  N2  UNL     1      -2.573   0.066   3.106  0.00  0.00    +0.000 NA
ENDBRANCH  12  13
ENDBRANCH   6   7
BRANCH   1  15
ATOM     15  C3  UNL     1       1.539   0.388   0.641  0.00  0.00    +0.000 C 
ATOM     16  O1  UNL     1       0.957   0.822   1.635  0.00  0.00    +0.000 OA
BRANCH  15  18
ATOM     17  C1  UNL     1       3.578   1.710   1.339  0.00  0.00    +0.000 C 
ATOM     18  C2  UNL     1       3.012   0.671   0.387  0.00  0.00    +0.000 C 
ENDBRANCH  15  18
ENDBRANCH   1  15
TORSDOF 4
