REMARK  Name = ligantes_elite\Elite_165.pdb
REMARK  5 active torsions:
REMARK  status: ('A' for Active; 'I' for Inactive)
REMARK    1  A    between atoms: C1_1  and  C2_2
REMARK    2  A    between atoms: C5_5  and  C6_6
REMARK    3  A    between atoms: C10_11  and  N2_12
REMARK    4  A    between atoms: C11_13  and  C12_14
REMARK    5  A    between atoms: C12_14  and  C13_16
REMARK                            x       y       z     vdW  Elec       q    Type
REMARK                         _______ _______ _______ _____ _____    ______ ____
ROOT
ATOM      1  C1  UNL     1       1.498   2.602   1.448  0.00  0.00    +0.000 C 
ATOM      2  C2  UNL     1       1.246   2.407  -0.047  0.00  0.00    +0.000 C 
ATOM      3  C3  UNL     1       0.023   3.217  -0.492  0.00  0.00    +0.000 C 
ATOM      4  C4  UNL     1      -1.150   2.299  -0.186  0.00  0.00    +0.000 C 
ATOM      5  C5  UNL     1      -0.652   0.906  -0.615  0.00  0.00    +0.000 C 
ATOM      6  C11 UNL     1       0.901   0.974  -0.527  0.00  0.00    +0.000 C 
ENDROOT
BRANCH   5   7
ATOM      7  C6  UNL     1      -1.363  -0.232   0.085  0.00  0.00    +0.000 C 
ATOM      8  C7  UNL     1      -1.351  -0.321   1.482  0.00  0.00    +0.000 C 
ATOM      9  N1  UNL     1      -1.905  -1.321   2.203  0.00  0.00    +0.000 NA
ATOM     10  C8  UNL     1      -2.470  -2.319   1.505  0.00  0.00    +0.000 C 
ATOM     11  C9  UNL     1      -2.536  -2.342   0.124  0.00  0.00    +0.000 C 
ATOM     12  C10 UNL     1      -2.030  -1.261  -0.605  0.00  0.00    +0.000 C 
BRANCH  12  13
ATOM     13  N2  UNL     1      -2.022  -1.358  -2.009  0.00  0.00    +0.000 N 
ATOM     14  H   UNL     1      -1.673  -0.615  -2.552  0.00  0.00    +0.000 HD
ATOM     15  H   UNL     1      -2.366  -2.169  -2.448  0.00  0.00    +0.000 HD
ENDBRANCH  12  13
ENDBRANCH   5   7
BRANCH   6  16
ATOM     16  C12 UNL     1       1.582  -0.203   0.163  0.00  0.00    +0.000 C 
ATOM     17  O1  UNL     1       2.086  -0.155   1.277  0.00  0.00    +0.000 OA
BRANCH  16  18
ATOM     18  C13 UNL     1       1.613  -1.478  -0.623  0.00  0.00    +0.000 C 
ATOM     19  C14 UNL     1       1.437  -2.800   0.086  0.00  0.00    +0.000 C 
ATOM     20  C15 UNL     1       2.777  -2.430  -0.483  0.00  0.00    +0.000 C 
ENDBRANCH  16  18
ENDBRANCH   6  16
TORSDOF 4
