REMARK  Name = ligantes_elite\Elite_007.pdb
REMARK  6 active torsions:
REMARK  status: ('A' for Active; 'I' for Inactive)
REMARK    1  A    between atoms: C1_1  and  C2_2
REMARK    2  A    between atoms: C2_2  and  C3_3
REMARK    3  A    between atoms: C3_3  and  C4_5
REMARK    4  A    between atoms: C5_6  and  C6_7
REMARK    5  A    between atoms: C9_10  and  C10_11
REMARK    6  A    between atoms: C14_16  and  C15_17
REMARK                            x       y       z     vdW  Elec       q    Type
REMARK                         _______ _______ _______ _____ _____    ______ ____
ROOT
ATOM      1  C4  UNL     1       1.016  -0.559   0.456  0.00  0.00    +0.000 C 
ATOM      2  C5  UNL     1       1.680  -1.947   0.284  0.00  0.00    +0.000 C 
ATOM      3  C6  UNL     1       2.678  -1.948  -0.875  0.00  0.00    +0.000 C 
ATOM      4  C7  UNL     1       0.517  -2.909   0.029  0.00  0.00    +0.000 C 
ATOM      5  C8  UNL     1      -0.497  -2.076  -0.736  0.00  0.00    +0.000 C 
ATOM      6  C9  UNL     1      -0.450  -0.712  -0.033  0.00  0.00    +0.000 C 
ENDROOT
BRANCH   6   7
ATOM      7  C10 UNL     1      -0.946   0.410  -0.926  0.00  0.00    +0.000 C 
ATOM      8  C11 UNL     1      -0.212   0.795  -2.051  0.00  0.00    +0.000 C 
ATOM      9  N1  UNL     1      -0.556   1.789  -2.900  0.00  0.00    +0.000 NA
ATOM     10  C12 UNL     1      -1.704   2.438  -2.637  0.00  0.00    +0.000 C 
ATOM     11  C13 UNL     1      -2.524   2.134  -1.566  0.00  0.00    +0.000 C 
ATOM     12  C14 UNL     1      -2.155   1.098  -0.692  0.00  0.00    +0.000 C 
BRANCH  12  13
ATOM     13  C15 UNL     1      -3.065   0.770   0.466  0.00  0.00    +0.000 C 
ATOM     14  F1  UNL     1      -3.438  -0.540   0.485  0.00  0.00    +0.000 F 
ATOM     15  F2  UNL     1      -2.482   1.021   1.669  0.00  0.00    +0.000 F 
ENDBRANCH  12  13
ENDBRANCH   6   7
BRANCH   1  16
ATOM     16  C3  UNL     1       1.043  -0.151   1.928  0.00  0.00    +0.000 C 
ATOM     17  O1  UNL     1       0.602  -0.887   2.812  0.00  0.00    +0.000 OA
BRANCH  16  19
ATOM     18  C1  UNL     1       0.756   2.342   1.859  0.00  0.00    +0.000 C 
ATOM     19  C2  UNL     1       1.653   1.193   2.272  0.00  0.00    +0.000 C 
ENDBRANCH  16  19
ENDBRANCH   1  16
TORSDOF 4
