REMARK  Name = ligantes_elite\Elite_130.pdb
REMARK  6 active torsions:
REMARK  status: ('A' for Active; 'I' for Inactive)
REMARK    1  A    between atoms: C1_1  and  C2_2
REMARK    2  A    between atoms: C2_2  and  C3_3
REMARK    3  A    between atoms: C3_3  and  C4_5
REMARK    4  A    between atoms: C5_6  and  O2_7
REMARK    5  A    between atoms: C8_10  and  C9_11
REMARK    6  A    between atoms: C13_16  and  C14_17
REMARK                            x       y       z     vdW  Elec       q    Type
REMARK                         _______ _______ _______ _____ _____    ______ ____
ROOT
ATOM      1  C4  UNL     1       1.298  -0.102  -0.612  0.00  0.00    +0.000 C 
ATOM      2  C5  UNL     1       1.821  -0.920  -1.795  0.00  0.00    +0.000 C 
ATOM      3  C6  UNL     1       0.819  -0.610  -2.898  0.00  0.00    +0.000 C 
ATOM      4  C7  UNL     1      -0.527  -0.653  -2.181  0.00  0.00    +0.000 C 
ATOM      5  C8  UNL     1      -0.246  -0.206  -0.728  0.00  0.00    +0.000 C 
ENDROOT
BRANCH   5   6
ATOM      6  C9  UNL     1      -0.961   1.089  -0.372  0.00  0.00    +0.000 C 
ATOM      7  C10 UNL     1      -0.719   2.254  -1.111  0.00  0.00    +0.000 C 
ATOM      8  N1  UNL     1      -1.264   3.462  -0.860  0.00  0.00    +0.000 NA
ATOM      9  C11 UNL     1      -2.101   3.527   0.188  0.00  0.00    +0.000 C 
ATOM     10  C12 UNL     1      -2.424   2.438   0.980  0.00  0.00    +0.000 C 
ATOM     11  C13 UNL     1      -1.872   1.175   0.705  0.00  0.00    +0.000 C 
BRANCH  11  12
ATOM     12  C14 UNL     1      -2.240  -0.012   1.575  0.00  0.00    +0.000 C 
ATOM     13  C15 UNL     1      -3.064  -1.139   0.992  0.00  0.00    +0.000 C 
ATOM     14  C16 UNL     1      -3.668  -0.239   2.023  0.00  0.00    +0.000 C 
ENDBRANCH  11  12
ENDBRANCH   5   6
BRANCH   1  15
ATOM     15  C3  UNL     1       1.844  -0.565   0.737  0.00  0.00    +0.000 C 
ATOM     16  O1  UNL     1       1.111  -0.744   1.711  0.00  0.00    +0.000 OA
BRANCH  15  18
ATOM     17  C1  UNL     1       3.819  -0.914   2.280  0.00  0.00    +0.000 C 
ATOM     18  C2  UNL     1       3.356  -0.704   0.849  0.00  0.00    +0.000 C 
ENDBRANCH  15  18
ENDBRANCH   1  15
BRANCH   2  19
ATOM     19  O2  UNL     1       1.791  -2.312  -1.506  0.00  0.00    +0.000 OA
ATOM     20  H   UNL     1       0.887  -2.574  -1.273  0.00  0.00    +0.000 HD
ENDBRANCH   2  19
TORSDOF 5
