REMARK  Name = ligantes_elite\Elite_013.pdb
REMARK  4 active torsions:
REMARK  status: ('A' for Active; 'I' for Inactive)
REMARK    1  A    between atoms: C1_1  and  O1_2
REMARK    2  A    between atoms: O1_2  and  C2_3
REMARK    3  A    between atoms: C2_3  and  C3_5
REMARK    4  A    between atoms: C7_10  and  C8_11
REMARK                            x       y       z     vdW  Elec       q    Type
REMARK                         _______ _______ _______ _____ _____    ______ ____
ROOT
ATOM      1  C3  UNL     1       1.004  -1.038   0.240  0.00  0.00    +0.000 C 
ATOM      2  C4  UNL     1       1.237  -2.415  -0.367  0.00  0.00    +0.000 C 
ATOM      3  F1  UNL     1       1.382  -3.304   0.660  0.00  0.00    +0.000 F 
ATOM      4  C5  UNL     1      -0.041  -2.783  -1.120  0.00  0.00    +0.000 C 
ATOM      5  C6  UNL     1      -1.078  -1.724  -0.740  0.00  0.00    +0.000 C 
ATOM      6  C7  UNL     1      -0.510  -1.035   0.509  0.00  0.00    +0.000 C 
ENDROOT
BRANCH   6   7
ATOM      7  C8  UNL     1      -1.097   0.292   0.910  0.00  0.00    +0.000 C 
ATOM      8  C9  UNL     1      -2.044   0.988   0.173  0.00  0.00    +0.000 C 
ATOM      9  N1  UNL     1      -2.569   2.183   0.537  0.00  0.00    +0.000 NA
ATOM     10  C10 UNL     1      -2.143   2.720   1.699  0.00  0.00    +0.000 C 
ATOM     11  C11 UNL     1      -1.216   2.115   2.519  0.00  0.00    +0.000 C 
ATOM     12  C12 UNL     1      -0.704   0.895   2.108  0.00  0.00    +0.000 C 
ATOM     13  F2  UNL     1       0.194   0.283   2.893  0.00  0.00    +0.000 F 
ENDBRANCH   6   7
BRANCH   1  14
ATOM     14  C2  UNL     1       1.442   0.031  -0.734  0.00  0.00    +0.000 C 
ATOM     15  O2  UNL     1       1.402  -0.078  -1.952  0.00  0.00    +0.000 OA
BRANCH  14  17
ATOM     16  C1  UNL     1       2.249   2.224  -0.908  0.00  0.00    +0.000 C 
ATOM     17  O1  UNL     1       1.865   1.138  -0.064  0.00  0.00    +0.000 OA
ENDBRANCH  14  17
ENDBRANCH   1  14
TORSDOF 3
