REMARK  Name = ligantes_elite\Elite_039.pdb
REMARK  3 active torsions:
REMARK  status: ('A' for Active; 'I' for Inactive)
REMARK    1  A    between atoms: C1_2  and  C2_3
REMARK    2  A    between atoms: C1_2  and  C5_6
REMARK    3  A    between atoms: C9_11  and  C10_12
REMARK                            x       y       z     vdW  Elec       q    Type
REMARK                         _______ _______ _______ _____ _____    ______ ____
ROOT
ATOM      1  C5  UNL     1       0.584   0.357  -0.594  0.00  0.00    +0.000 C 
ATOM      2  C6  UNL     1       1.144   1.325  -1.624  0.00  0.00    +0.000 C 
ATOM      3  F1  UNL     1       1.817   0.649  -2.586  0.00  0.00    +0.000 F 
ATOM      4  C7  UNL     1      -0.088   1.983  -2.215  0.00  0.00    +0.000 C 
ATOM      5  C8  UNL     1      -0.954   2.240  -0.991  0.00  0.00    +0.000 C 
ATOM      6  C9  UNL     1      -0.659   1.076  -0.011  0.00  0.00    +0.000 C 
ENDROOT
BRANCH   6   7
ATOM      7  C10 UNL     1      -1.829   0.123   0.179  0.00  0.00    +0.000 C 
ATOM      8  C11 UNL     1      -2.466  -0.422  -0.942  0.00  0.00    +0.000 C 
ATOM      9  N1  UNL     1      -3.502  -1.288  -0.907  0.00  0.00    +0.000 NA
ATOM     10  C12 UNL     1      -3.951  -1.645   0.312  0.00  0.00    +0.000 C 
ATOM     11  C13 UNL     1      -3.406  -1.180   1.494  0.00  0.00    +0.000 C 
ATOM     12  C14 UNL     1      -2.336  -0.287   1.424  0.00  0.00    +0.000 C 
ATOM     13  I1  UNL     1      -1.555   0.330   3.282  0.00  0.00    +0.000 I 
ENDBRANCH   6   7
BRANCH   1  15
ATOM     14  O1  UNL     1       1.866   0.832   1.386  0.00  0.00    +0.000 OA
ATOM     15  C1  UNL     1       1.656   0.095   0.436  0.00  0.00    +0.000 C 
BRANCH  15  16
ATOM     16  C2  UNL     1       2.493  -1.121   0.213  0.00  0.00    +0.000 C 
ATOM     17  C3  UNL     1       3.895  -1.201   0.768  0.00  0.00    +0.000 C 
ATOM     18  C4  UNL     1       2.802  -2.036   1.369  0.00  0.00    +0.000 C 
ENDBRANCH  15  16
ENDBRANCH   1  15
TORSDOF 3
