REMARK  Name = ligantes_elite\Elite_093.pdb
REMARK  6 active torsions:
REMARK  status: ('A' for Active; 'I' for Inactive)
REMARK    1  A    between atoms: C1_1  and  C2_2
REMARK    2  A    between atoms: C2_2  and  C3_3
REMARK    3  A    between atoms: C2_2  and  C4_4
REMARK    4  A    between atoms: C4_4  and  C5_6
REMARK    5  A    between atoms: C9_11  and  C10_12
REMARK    6  A    between atoms: C14_17  and  C15_18
REMARK                            x       y       z     vdW  Elec       q    Type
REMARK                         _______ _______ _______ _____ _____    ______ ____
ROOT
ATOM      1  C5  UNL     1       0.549   0.068   0.752  0.00  0.00    +0.000 C 
ATOM      2  C6  UNL     1       1.172  -0.575   1.981  0.00  0.00    +0.000 C 
ATOM      3  F1  UNL     1       1.693  -1.785   1.651  0.00  0.00    +0.000 F 
ATOM      4  C7  UNL     1      -0.013  -0.794   2.902  0.00  0.00    +0.000 C 
ATOM      5  C8  UNL     1      -1.109  -1.295   1.968  0.00  0.00    +0.000 C 
ATOM      6  C9  UNL     1      -0.780  -0.710   0.575  0.00  0.00    +0.000 C 
ENDROOT
BRANCH   6   7
ATOM      7  C10 UNL     1      -1.899   0.147   0.010  0.00  0.00    +0.000 C 
ATOM      8  C11 UNL     1      -2.346   1.272   0.710  0.00  0.00    +0.000 C 
ATOM      9  N1  UNL     1      -3.311   2.117   0.287  0.00  0.00    +0.000 NA
ATOM     10  C12 UNL     1      -3.885   1.833  -0.895  0.00  0.00    +0.000 C 
ATOM     11  C13 UNL     1      -3.536   0.741  -1.670  0.00  0.00    +0.000 C 
ATOM     12  C14 UNL     1      -2.530  -0.129  -1.221  0.00  0.00    +0.000 C 
BRANCH  12  13
ATOM     13  C15 UNL     1      -2.177  -1.327  -2.074  0.00  0.00    +0.000 C 
ATOM     14  F2  UNL     1      -2.980  -1.454  -3.173  0.00  0.00    +0.000 F 
ATOM     15  F3  UNL     1      -2.316  -2.502  -1.397  0.00  0.00    +0.000 F 
ENDBRANCH  12  13
ENDBRANCH   6   7
BRANCH   1  16
ATOM     16  C4  UNL     1       1.454  -0.011  -0.469  0.00  0.00    +0.000 C 
ATOM     17  O1  UNL     1       1.054  -0.475  -1.539  0.00  0.00    +0.000 OA
BRANCH  16  19
ATOM     18  C1  UNL     1       2.990   1.738  -1.363  0.00  0.00    +0.000 C 
ATOM     19  C2  UNL     1       2.849   0.600  -0.357  0.00  0.00    +0.000 C 
ATOM     20  C3  UNL     1       3.904  -0.476  -0.583  0.00  0.00    +0.000 C 
ENDBRANCH  16  19
ENDBRANCH   1  16
TORSDOF 4
