REMARK  Name = ligantes_elite\Elite_141.pdb
REMARK  5 active torsions:
REMARK  status: ('A' for Active; 'I' for Inactive)
REMARK    1  A    between atoms: C1_1  and  C2_2
REMARK    2  A    between atoms: C2_2  and  C3_3
REMARK    3  A    between atoms: C3_3  and  C4_5
REMARK    4  A    between atoms: C8_10  and  C9_11
REMARK    5  A    between atoms: C13_16  and  C14_17
REMARK                            x       y       z     vdW  Elec       q    Type
REMARK                         _______ _______ _______ _____ _____    ______ ____
ROOT
ATOM      1  C4  UNL     1       1.239   1.217   0.381  0.00  0.00    +0.000 C 
ATOM      2  C5  UNL     1       1.446   2.709   0.632  0.00  0.00    +0.000 C 
ATOM      3  F1  UNL     1       1.816   2.856   1.940  0.00  0.00    +0.000 F 
ATOM      4  C6  UNL     1       0.082   3.355   0.459  0.00  0.00    +0.000 C 
ATOM      5  C7  UNL     1      -0.862   2.300   1.016  0.00  0.00    +0.000 C 
ATOM      6  C8  UNL     1      -0.288   0.985   0.466  0.00  0.00    +0.000 C 
ENDROOT
BRANCH   6   7
ATOM      7  C9  UNL     1      -0.702  -0.221   1.284  0.00  0.00    +0.000 C 
ATOM      8  C10 UNL     1      -0.236  -0.371   2.596  0.00  0.00    +0.000 C 
ATOM      9  N1  UNL     1      -0.553  -1.394   3.417  0.00  0.00    +0.000 NA
ATOM     10  C11 UNL     1      -1.401  -2.311   2.925  0.00  0.00    +0.000 C 
ATOM     11  C12 UNL     1      -1.936  -2.254   1.649  0.00  0.00    +0.000 C 
ATOM     12  C13 UNL     1      -1.586  -1.204   0.782  0.00  0.00    +0.000 C 
BRANCH  12  13
ATOM     13  C14 UNL     1      -2.196  -1.132  -0.606  0.00  0.00    +0.000 C 
ATOM     14  C15 UNL     1      -2.436  -2.378  -1.431  0.00  0.00    +0.000 C 
ATOM     15  C16 UNL     1      -1.340  -1.435  -1.816  0.00  0.00    +0.000 C 
ENDBRANCH  12  13
ENDBRANCH   6   7
BRANCH   1  16
ATOM     16  C3  UNL     1       1.752   0.835  -0.995  0.00  0.00    +0.000 C 
ATOM     17  O1  UNL     1       1.569   1.563  -1.970  0.00  0.00    +0.000 OA
BRANCH  16  19
ATOM     18  C1  UNL     1       2.806  -0.876  -2.526  0.00  0.00    +0.000 C 
ATOM     19  C2  UNL     1       2.484  -0.493  -1.094  0.00  0.00    +0.000 C 
ENDBRANCH  16  19
ENDBRANCH   1  16
TORSDOF 4
