REMARK  Name = ligantes_elite\Elite_095.pdb
REMARK  6 active torsions:
REMARK  status: ('A' for Active; 'I' for Inactive)
REMARK    1  A    between atoms: C1_1  and  O1_2
REMARK    2  A    between atoms: O1_2  and  C2_3
REMARK    3  A    between atoms: C2_3  and  C3_5
REMARK    4  A    between atoms: C4_6  and  C5_7
REMARK    5  A    between atoms: C8_11  and  C9_12
REMARK    6  A    between atoms: C13_17  and  N2_18
REMARK                            x       y       z     vdW  Elec       q    Type
REMARK                         _______ _______ _______ _____ _____    ______ ____
ROOT
ATOM      1  C3  UNL     1      -0.712  -0.182  -0.498  0.00  0.00    +0.000 C 
ATOM      2  C4  UNL     1      -1.586  -1.443  -0.602  0.00  0.00    +0.000 C 
ATOM      3  C6  UNL     1      -0.599  -2.566  -0.310  0.00  0.00    +0.000 C 
ATOM      4  C7  UNL     1       0.198  -2.019   0.866  0.00  0.00    +0.000 C 
ATOM      5  C8  UNL     1       0.320  -0.497   0.616  0.00  0.00    +0.000 C 
ENDROOT
BRANCH   5   6
ATOM      6  C9  UNL     1       1.702   0.002   0.231  0.00  0.00    +0.000 C 
ATOM      7  C10 UNL     1       2.563  -0.780  -0.547  0.00  0.00    +0.000 C 
ATOM      8  N1  UNL     1       3.775  -0.389  -0.999  0.00  0.00    +0.000 NA
ATOM      9  C11 UNL     1       4.147   0.867  -0.697  0.00  0.00    +0.000 C 
ATOM     10  C12 UNL     1       3.374   1.733   0.055  0.00  0.00    +0.000 C 
ATOM     11  C13 UNL     1       2.154   1.289   0.574  0.00  0.00    +0.000 C 
BRANCH  11  12
ATOM     12  N2  UNL     1       1.334   2.222   1.229  0.00  0.00    +0.000 N 
ATOM     13  H   UNL     1       0.469   1.939   1.605  0.00  0.00    +0.000 HD
ATOM     14  H   UNL     1       1.624   3.159   1.312  0.00  0.00    +0.000 HD
ENDBRANCH  11  12
ENDBRANCH   5   6
BRANCH   1  15
ATOM     15  C2  UNL     1      -1.531   1.062  -0.219  0.00  0.00    +0.000 C 
ATOM     16  O2  UNL     1      -1.666   1.980  -1.018  0.00  0.00    +0.000 OA
BRANCH  15  18
ATOM     17  C1  UNL     1      -2.933   2.143   1.306  0.00  0.00    +0.000 C 
ATOM     18  O1  UNL     1      -2.112   1.011   1.013  0.00  0.00    +0.000 OA
ENDBRANCH  15  18
ENDBRANCH   1  15
BRANCH   2  19
ATOM     19  C5  UNL     1      -2.269  -1.590  -1.950  0.00  0.00    +0.000 C 
ATOM     20  F1  UNL     1      -3.203  -0.611  -2.072  0.00  0.00    +0.000 F 
ENDBRANCH   2  19
TORSDOF 5
