REMARK  Name = ligantes_elite\Elite_191.pdb
REMARK  5 active torsions:
REMARK  status: ('A' for Active; 'I' for Inactive)
REMARK    1  A    between atoms: C1_2  and  C2_4
REMARK    2  A    between atoms: C2_4  and  C3_6
REMARK    3  A    between atoms: C4_7  and  C5_8
REMARK    4  A    between atoms: C8_12  and  C9_13
REMARK    5  A    between atoms: C13_18  and  N3_19
REMARK                            x       y       z     vdW  Elec       q    Type
REMARK                         _______ _______ _______ _____ _____    ______ ____
ROOT
ATOM      1  C3  UNL     1      -0.878  -0.251  -0.631  0.00  0.00    +0.000 C 
ATOM      2  C4  UNL     1      -1.885  -1.406  -0.527  0.00  0.00    +0.000 C 
ATOM      3  C6  UNL     1      -0.954  -2.620  -0.451  0.00  0.00    +0.000 C 
ATOM      4  C7  UNL     1       0.183  -2.175   0.465  0.00  0.00    +0.000 C 
ATOM      5  C8  UNL     1       0.291  -0.638   0.303  0.00  0.00    +0.000 C 
ENDROOT
BRANCH   5   6
ATOM      6  C9  UNL     1       1.614  -0.126  -0.235  0.00  0.00    +0.000 C 
ATOM      7  C10 UNL     1       2.284  -0.811  -1.255  0.00  0.00    +0.000 C 
ATOM      8  N2  UNL     1       3.425  -0.398  -1.848  0.00  0.00    +0.000 NA
ATOM      9  C11 UNL     1       3.920   0.781  -1.436  0.00  0.00    +0.000 C 
ATOM     10  C12 UNL     1       3.335   1.551  -0.446  0.00  0.00    +0.000 C 
ATOM     11  C13 UNL     1       2.192   1.077   0.206  0.00  0.00    +0.000 C 
BRANCH  11  12
ATOM     12  N3  UNL     1       1.545   1.934   1.114  0.00  0.00    +0.000 N 
ATOM     13  H   UNL     1       0.738   1.630   1.589  0.00  0.00    +0.000 HD
ATOM     14  H   UNL     1       1.899   2.838   1.275  0.00  0.00    +0.000 HD
ENDBRANCH  11  12
ENDBRANCH   5   6
BRANCH   1  15
ATOM     15  C2  UNL     1      -1.501   1.128  -0.505  0.00  0.00    +0.000 C 
ATOM     16  O2  UNL     1      -2.011   1.705  -1.466  0.00  0.00    +0.000 OA
BRANCH  15  18
ATOM     17  N1  UNL     1      -1.894   3.148   0.799  0.00  0.00    +0.000 N 
ATOM     18  C1  UNL     1      -1.607   1.812   0.864  0.00  0.00    +0.000 C 
ATOM     19  O1  UNL     1      -1.486   1.202   1.913  0.00  0.00    +0.000 OA
ATOM     20  H   UNL     1      -1.982   3.673   1.627  0.00  0.00    +0.000 HD
ATOM     21  H   UNL     1      -2.013   3.584  -0.076  0.00  0.00    +0.000 HD
ENDBRANCH  15  18
ENDBRANCH   1  15
BRANCH   2  22
ATOM     22  C5  UNL     1      -2.830  -1.349   0.672  0.00  0.00    +0.000 C 
ATOM     23  F1  UNL     1      -3.635  -2.447   0.637  0.00  0.00    +0.000 F 
ENDBRANCH   2  22
TORSDOF 5
