REMARK  Name = ligantes_elite\Elite_157.pdb
REMARK  7 active torsions:
REMARK  status: ('A' for Active; 'I' for Inactive)
REMARK    1  A    between atoms: C1_1  and  C2_2
REMARK    2  A    between atoms: C2_2  and  C3_3
REMARK    3  A    between atoms: C3_3  and  C4_4
REMARK    4  A    between atoms: C4_4  and  C5_6
REMARK    5  A    between atoms: C6_7  and  O2_8
REMARK    6  A    between atoms: C9_11  and  C10_12
REMARK    7  A    between atoms: C14_17  and  C15_18
REMARK                            x       y       z     vdW  Elec       q    Type
REMARK                         _______ _______ _______ _____ _____    ______ ____
ROOT
ATOM      1  C5  UNL     1       0.616  -0.520   0.099  0.00  0.00    +0.000 C 
ATOM      2  C6  UNL     1       1.207  -1.806   0.683  0.00  0.00    +0.000 C 
ATOM      3  C7  UNL     1      -0.024  -2.666   0.941  0.00  0.00    +0.000 C 
ATOM      4  C8  UNL     1      -0.954  -2.381  -0.238  0.00  0.00    +0.000 C 
ATOM      5  C9  UNL     1      -0.484  -1.044  -0.846  0.00  0.00    +0.000 C 
ENDROOT
BRANCH   5   6
ATOM      6  C10 UNL     1      -1.639  -0.135  -1.235  0.00  0.00    +0.000 C 
ATOM      7  C11 UNL     1      -2.007  -0.162  -2.592  0.00  0.00    +0.000 C 
ATOM      8  N1  UNL     1      -3.006   0.553  -3.154  0.00  0.00    +0.000 NA
ATOM      9  C12 UNL     1      -3.675   1.371  -2.333  0.00  0.00    +0.000 C 
ATOM     10  C13 UNL     1      -3.402   1.481  -0.980  0.00  0.00    +0.000 C 
ATOM     11  C14 UNL     1      -2.386   0.708  -0.380  0.00  0.00    +0.000 C 
BRANCH  11  12
ATOM     12  C15 UNL     1      -2.148   0.883   1.107  0.00  0.00    +0.000 C 
ATOM     13  C16 UNL     1      -3.318   0.998   2.066  0.00  0.00    +0.000 C 
ATOM     14  C17 UNL     1      -2.458  -0.223   2.087  0.00  0.00    +0.000 C 
ENDBRANCH  11  12
ENDBRANCH   5   6
BRANCH   1  15
ATOM     15  C4  UNL     1       1.649   0.357  -0.603  0.00  0.00    +0.000 C 
ATOM     16  O1  UNL     1       1.443   0.836  -1.719  0.00  0.00    +0.000 OA
BRANCH  15  17
ATOM     17  C3  UNL     1       2.913   0.685   0.181  0.00  0.00    +0.000 C 
BRANCH  17  19
ATOM     18  C1  UNL     1       4.988   2.105   0.329  0.00  0.00    +0.000 C 
ATOM     19  C2  UNL     1       3.748   1.776  -0.486  0.00  0.00    +0.000 C 
ENDBRANCH  17  19
ENDBRANCH  15  17
ENDBRANCH   1  15
BRANCH   2  20
ATOM     20  O2  UNL     1       2.047  -2.457  -0.262  0.00  0.00    +0.000 OA
ATOM     21  H   UNL     1       1.543  -2.641  -1.070  0.00  0.00    +0.000 HD
ENDBRANCH   2  20
TORSDOF 6
