REMARK  Name = ligantes_elite\Elite_073.pdb
REMARK  4 active torsions:
REMARK  status: ('A' for Active; 'I' for Inactive)
REMARK    1  A    between atoms: C1_2  and  C2_3
REMARK    2  A    between atoms: C6_8  and  C7_9
REMARK    3  A    between atoms: C11_14  and  C12_15
REMARK    4  A    between atoms: C12_15  and  C13_17
REMARK                            x       y       z     vdW  Elec       q    Type
REMARK                         _______ _______ _______ _____ _____    ______ ____
ROOT
ATOM      1  C7  UNL     1       0.257  -0.754  -0.120  0.00  0.00    +0.000 C 
ATOM      2  C8  UNL     1       0.119  -2.160   0.506  0.00  0.00    +0.000 C 
ATOM      3  C9  UNL     1      -1.275  -2.212   1.125  0.00  0.00    +0.000 C 
ATOM      4  C10 UNL     1      -2.059  -1.159   0.364  0.00  0.00    +0.000 C 
ATOM      5  F1  UNL     1      -2.356  -1.649  -0.869  0.00  0.00    +0.000 F 
ATOM      6  C11 UNL     1      -1.062  -0.020   0.221  0.00  0.00    +0.000 C 
ENDROOT
BRANCH   1  12
ATOM      7  C2  UNL     1       2.517   0.399  -0.538  0.00  0.00    +0.000 C 
ATOM      8  C3  UNL     1       3.627   1.092  -0.044  0.00  0.00    +0.000 C 
ATOM      9  C4  UNL     1       3.698   1.342   1.312  0.00  0.00    +0.000 C 
ATOM     10  N2  UNL     1       2.755   0.949   2.188  0.00  0.00    +0.000 NA
ATOM     11  C5  UNL     1       1.691   0.283   1.689  0.00  0.00    +0.000 C 
ATOM     12  C6  UNL     1       1.501  -0.018   0.340  0.00  0.00    +0.000 C 
BRANCH   7  14
ATOM     13  N1  UNL     1       2.492  -0.120  -3.083  0.00  0.00    +0.000 NA
ATOM     14  C1  UNL     1       2.481   0.122  -1.948  0.00  0.00    +0.000 C 
ENDBRANCH   7  14
ENDBRANCH   1  12
BRANCH   6  15
ATOM     15  C12 UNL     1      -1.467   0.961  -0.855  0.00  0.00    +0.000 C 
ATOM     16  O1  UNL     1      -0.718   1.384  -1.731  0.00  0.00    +0.000 OA
BRANCH  15  17
ATOM     17  C13 UNL     1      -2.883   1.535  -0.773  0.00  0.00    +0.000 C 
ATOM     18  N3  UNL     1      -3.320   2.133  -1.921  0.00  0.00    +0.000 N 
ATOM     19  O2  UNL     1      -3.533   1.465   0.256  0.00  0.00    +0.000 OA
ATOM     20  H   UNL     1      -2.741   2.153  -2.717  0.00  0.00    +0.000 HD
ATOM     21  H   UNL     1      -4.214   2.544  -1.952  0.00  0.00    +0.000 HD
ENDBRANCH  15  17
ENDBRANCH   6  15
TORSDOF 4
