REMARK  Name = ligantes_elite\Elite_121.pdb
REMARK  6 active torsions:
REMARK  status: ('A' for Active; 'I' for Inactive)
REMARK    1  A    between atoms: C1_1  and  C2_2
REMARK    2  A    between atoms: C2_2  and  C3_3
REMARK    3  A    between atoms: C3_3  and  C4_5
REMARK    4  A    between atoms: C5_6  and  C6_7
REMARK    5  A    between atoms: C9_10  and  C10_11
REMARK    6  A    between atoms: C14_16  and  C15_17
REMARK                            x       y       z     vdW  Elec       q    Type
REMARK                         _______ _______ _______ _____ _____    ______ ____
ROOT
ATOM      1  C4  UNL     1      -0.736  -0.293  -0.170  0.00  0.00    +0.000 C 
ATOM      2  C5  UNL     1      -1.420  -1.603  -0.581  0.00  0.00    +0.000 C 
ATOM      3  C6  UNL     1      -1.924  -1.596  -2.017  0.00  0.00    +0.000 C 
ATOM      4  C7  UNL     1      -0.326  -2.643  -0.352  0.00  0.00    +0.000 C 
ATOM      5  C8  UNL     1       0.371  -2.198   0.931  0.00  0.00    +0.000 C 
ATOM      6  C9  UNL     1       0.075  -0.692   1.081  0.00  0.00    +0.000 C 
ENDROOT
BRANCH   6   7
ATOM      7  C10 UNL     1       1.282   0.182   1.358  0.00  0.00    +0.000 C 
ATOM      8  C11 UNL     1       1.276   0.963   2.515  0.00  0.00    +0.000 C 
ATOM      9  N1  UNL     1       2.271   1.798   2.888  0.00  0.00    +0.000 NA
ATOM     10  C12 UNL     1       3.346   1.872   2.084  0.00  0.00    +0.000 C 
ATOM     11  C13 UNL     1       3.466   1.151   0.914  0.00  0.00    +0.000 C 
ATOM     12  C14 UNL     1       2.421   0.297   0.542  0.00  0.00    +0.000 C 
BRANCH  12  13
ATOM     13  C15 UNL     1       2.570  -0.422  -0.690  0.00  0.00    +0.000 C 
ATOM     14  N2  UNL     1       2.689  -0.984  -1.698  0.00  0.00    +0.000 NA
ENDBRANCH  12  13
ENDBRANCH   6   7
BRANCH   1  15
ATOM     15  C3  UNL     1      -1.737   0.803   0.172  0.00  0.00    +0.000 C 
ATOM     16  O1  UNL     1      -2.712   0.589   0.894  0.00  0.00    +0.000 OA
BRANCH  15  18
ATOM     17  C1  UNL     1      -1.878   2.271  -1.846  0.00  0.00    +0.000 C 
ATOM     18  C2  UNL     1      -1.473   2.185  -0.388  0.00  0.00    +0.000 C 
ENDBRANCH  15  18
ENDBRANCH   1  15
TORSDOF 4
