REMARK  Name = ligantes_elite\Elite_190.pdb
REMARK  7 active torsions:
REMARK  status: ('A' for Active; 'I' for Inactive)
REMARK    1  A    between atoms: C1_1  and  C2_2
REMARK    2  A    between atoms: C2_2  and  C3_3
REMARK    3  A    between atoms: C2_2  and  C4_4
REMARK    4  A    between atoms: C4_4  and  C5_6
REMARK    5  A    between atoms: C6_7  and  O2_8
REMARK    6  A    between atoms: C9_11  and  C10_12
REMARK    7  A    between atoms: C14_17  and  C15_18
REMARK                            x       y       z     vdW  Elec       q    Type
REMARK                         _______ _______ _______ _____ _____    ______ ____
ROOT
ATOM      1  C5  UNL     1      -0.385   0.996   0.318  0.00  0.00    +0.000 C 
ATOM      2  C6  UNL     1      -0.405   2.520   0.153  0.00  0.00    +0.000 C 
ATOM      3  C7  UNL     1      -0.054   2.765  -1.308  0.00  0.00    +0.000 C 
ATOM      4  C8  UNL     1       1.000   1.705  -1.594  0.00  0.00    +0.000 C 
ATOM      5  C9  UNL     1       0.503   0.461  -0.835  0.00  0.00    +0.000 C 
ENDROOT
BRANCH   5   6
ATOM      6  C10 UNL     1       1.644  -0.426  -0.372  0.00  0.00    +0.000 C 
ATOM      7  C11 UNL     1       2.565   0.037   0.568  0.00  0.00    +0.000 C 
ATOM      8  N1  UNL     1       3.609  -0.681   1.039  0.00  0.00    +0.000 NA
ATOM      9  C12 UNL     1       3.769  -1.926   0.558  0.00  0.00    +0.000 C 
ATOM     10  C13 UNL     1       2.924  -2.492  -0.376  0.00  0.00    +0.000 C 
ATOM     11  C14 UNL     1       1.847  -1.733  -0.847  0.00  0.00    +0.000 C 
BRANCH  11  12
ATOM     12  C15 UNL     1       0.973  -2.340  -1.809  0.00  0.00    +0.000 C 
ATOM     13  N2  UNL     1       0.255  -2.835  -2.575  0.00  0.00    +0.000 NA
ENDBRANCH  11  12
ENDBRANCH   5   6
BRANCH   1  14
ATOM     14  C4  UNL     1      -1.788   0.410   0.201  0.00  0.00    +0.000 C 
ATOM     15  O1  UNL     1      -2.694   1.014  -0.376  0.00  0.00    +0.000 OA
BRANCH  14  17
ATOM     16  C1  UNL     1      -3.020  -1.771   0.018  0.00  0.00    +0.000 C 
ATOM     17  C2  UNL     1      -2.011  -0.964   0.828  0.00  0.00    +0.000 C 
ATOM     18  C3  UNL     1      -2.471  -0.792   2.270  0.00  0.00    +0.000 C 
ENDBRANCH  14  17
ENDBRANCH   1  14
BRANCH   2  19
ATOM     19  O2  UNL     1       0.617   3.072   0.986  0.00  0.00    +0.000 OA
ATOM     20  H   UNL     1       1.472   2.679   0.752  0.00  0.00    +0.000 HD
ENDBRANCH   2  19
TORSDOF 5
