REMARK  Name = ligantes_elite\Elite_140.pdb
REMARK  5 active torsions:
REMARK  status: ('A' for Active; 'I' for Inactive)
REMARK    1  A    between atoms: C1_1  and  O1_2
REMARK    2  A    between atoms: O1_2  and  C2_3
REMARK    3  A    between atoms: C2_3  and  C3_5
REMARK    4  A    between atoms: C4_6  and  C5_7
REMARK    5  A    between atoms: C8_10  and  C9_11
REMARK                            x       y       z     vdW  Elec       q    Type
REMARK                         _______ _______ _______ _____ _____    ______ ____
ROOT
ATOM      1  C3  UNL     1       0.675   0.578  -0.580  0.00  0.00    +0.000 C 
ATOM      2  C4  UNL     1       1.518   1.841  -0.269  0.00  0.00    +0.000 C 
ATOM      3  C5  UNL     1       1.917   2.599  -1.531  0.00  0.00    +0.000 C 
ATOM      4  C6  UNL     1       0.655   2.704   0.663  0.00  0.00    +0.000 C 
ATOM      5  C7  UNL     1      -0.332   1.726   1.284  0.00  0.00    +0.000 C 
ATOM      6  C8  UNL     1      -0.693   0.821   0.096  0.00  0.00    +0.000 C 
ENDROOT
BRANCH   6   7
ATOM      7  C9  UNL     1      -1.535  -0.407   0.368  0.00  0.00    +0.000 C 
ATOM      8  C10 UNL     1      -1.543  -1.010   1.627  0.00  0.00    +0.000 C 
ATOM      9  N1  UNL     1      -2.254  -2.114   1.959  0.00  0.00    +0.000 NA
ATOM     10  C11 UNL     1      -3.004  -2.671   0.994  0.00  0.00    +0.000 C 
ATOM     11  C12 UNL     1      -3.074  -2.178  -0.292  0.00  0.00    +0.000 C 
ATOM     12  C13 UNL     1      -2.330  -1.037  -0.605  0.00  0.00    +0.000 C 
ATOM     13  I1  UNL     1      -2.498  -0.361  -2.592  0.00  0.00    +0.000 I 
ENDBRANCH   6   7
BRANCH   1  14
ATOM     14  C2  UNL     1       1.364  -0.662  -0.034  0.00  0.00    +0.000 C 
ATOM     15  O2  UNL     1       1.842  -0.755   1.089  0.00  0.00    +0.000 OA
BRANCH  14  17
ATOM     16  C1  UNL     1       1.906  -2.888  -0.505  0.00  0.00    +0.000 C 
ATOM     17  O1  UNL     1       1.342  -1.658  -0.962  0.00  0.00    +0.000 OA
ENDBRANCH  14  17
ENDBRANCH   1  14
TORSDOF 3
