REMARK  Name = ligantes_elite\Elite_088.pdb
REMARK  6 active torsions:
REMARK  status: ('A' for Active; 'I' for Inactive)
REMARK    1  A    between atoms: C1_1  and  C2_2
REMARK    2  A    between atoms: C2_2  and  C3_3
REMARK    3  A    between atoms: C3_3  and  C4_5
REMARK    4  A    between atoms: C5_6  and  O2_7
REMARK    5  A    between atoms: C8_10  and  C9_11
REMARK    6  A    between atoms: C13_16  and  C14_17
REMARK                            x       y       z     vdW  Elec       q    Type
REMARK                         _______ _______ _______ _____ _____    ______ ____
ROOT
ATOM      1  C4  UNL     1       0.882  -0.138   0.543  0.00  0.00    +0.000 C 
ATOM      2  C5  UNL     1       1.156  -1.518   1.160  0.00  0.00    +0.000 C 
ATOM      3  C6  UNL     1       0.085  -2.455   0.613  0.00  0.00    +0.000 C 
ATOM      4  C7  UNL     1      -0.277  -1.855  -0.735  0.00  0.00    +0.000 C 
ATOM      5  C8  UNL     1      -0.246  -0.338  -0.499  0.00  0.00    +0.000 C 
ENDROOT
BRANCH   5   6
ATOM      6  C9  UNL     1      -1.621   0.180  -0.086  0.00  0.00    +0.000 C 
ATOM      7  C10 UNL     1      -2.048   0.158   1.245  0.00  0.00    +0.000 C 
ATOM      8  N1  UNL     1      -3.257   0.581   1.678  0.00  0.00    +0.000 NA
ATOM      9  C11 UNL     1      -4.104   1.057   0.750  0.00  0.00    +0.000 C 
ATOM     10  C12 UNL     1      -3.801   1.118  -0.597  0.00  0.00    +0.000 C 
ATOM     11  C13 UNL     1      -2.546   0.668  -1.037  0.00  0.00    +0.000 C 
BRANCH  11  12
ATOM     12  C14 UNL     1      -2.232   0.743  -2.513  0.00  0.00    +0.000 C 
ATOM     13  F1  UNL     1      -1.265   1.661  -2.790  0.00  0.00    +0.000 F 
ATOM     14  F2  UNL     1      -3.304   1.102  -3.277  0.00  0.00    +0.000 F 
ENDBRANCH  11  12
ENDBRANCH   5   6
BRANCH   1  15
ATOM     15  C3  UNL     1       2.167   0.338  -0.123  0.00  0.00    +0.000 C 
ATOM     16  O1  UNL     1       2.513  -0.090  -1.225  0.00  0.00    +0.000 OA
BRANCH  15  18
ATOM     17  C1  UNL     1       4.286   1.713  -0.052  0.00  0.00    +0.000 C 
ATOM     18  C2  UNL     1       3.012   1.318   0.673  0.00  0.00    +0.000 C 
ENDBRANCH  15  18
ENDBRANCH   1  15
BRANCH   2  19
ATOM     19  O2  UNL     1       1.073  -1.436   2.576  0.00  0.00    +0.000 OA
ATOM     20  H   UNL     1       0.194  -1.115   2.830  0.00  0.00    +0.000 HD
ENDBRANCH   2  19
TORSDOF 5
