REMARK  Name = ligantes_elite\Elite_122.pdb
REMARK  6 active torsions:
REMARK  status: ('A' for Active; 'I' for Inactive)
REMARK    1  A    between atoms: C1_1  and  C2_2
REMARK    2  A    between atoms: C2_2  and  C3_3
REMARK    3  A    between atoms: C2_2  and  C4_4
REMARK    4  A    between atoms: C4_4  and  C5_6
REMARK    5  A    between atoms: C9_11  and  C10_12
REMARK    6  A    between atoms: C14_17  and  C15_18
REMARK                            x       y       z     vdW  Elec       q    Type
REMARK                         _______ _______ _______ _____ _____    ______ ____
ROOT
ATOM      1  C5  UNL     1       0.712   0.417   1.017  0.00  0.00    +0.000 C 
ATOM      2  C6  UNL     1       1.012   0.605   2.503  0.00  0.00    +0.000 C 
ATOM      3  F1  UNL     1       0.804   1.924   2.797  0.00  0.00    +0.000 F 
ATOM      4  C7  UNL     1      -0.036  -0.206   3.246  0.00  0.00    +0.000 C 
ATOM      5  C8  UNL     1      -1.273  -0.036   2.376  0.00  0.00    +0.000 C 
ATOM      6  C9  UNL     1      -0.719  -0.167   0.949  0.00  0.00    +0.000 C 
ENDROOT
BRANCH   6   7
ATOM      7  C10 UNL     1      -1.593   0.477  -0.106  0.00  0.00    +0.000 C 
ATOM      8  C11 UNL     1      -1.844   1.853  -0.066  0.00  0.00    +0.000 C 
ATOM      9  N1  UNL     1      -2.590   2.529  -0.965  0.00  0.00    +0.000 NA
ATOM     10  C12 UNL     1      -3.135   1.808  -1.962  0.00  0.00    +0.000 C 
ATOM     11  C13 UNL     1      -2.961   0.443  -2.101  0.00  0.00    +0.000 C 
ATOM     12  C14 UNL     1      -2.178  -0.247  -1.164  0.00  0.00    +0.000 C 
BRANCH  12  13
ATOM     13  C15 UNL     1      -2.005  -1.737  -1.328  0.00  0.00    +0.000 C 
ATOM     14  F2  UNL     1      -2.627  -2.238  -2.434  0.00  0.00    +0.000 F 
ENDBRANCH  12  13
ENDBRANCH   6   7
BRANCH   1  15
ATOM     15  C4  UNL     1       1.693  -0.557   0.389  0.00  0.00    +0.000 C 
ATOM     16  O1  UNL     1       2.069  -1.558   1.000  0.00  0.00    +0.000 OA
BRANCH  15  18
ATOM     17  C1  UNL     1       2.566  -1.528  -1.761  0.00  0.00    +0.000 C 
ATOM     18  C2  UNL     1       2.156  -0.251  -1.033  0.00  0.00    +0.000 C 
ATOM     19  C3  UNL     1       3.306   0.748  -0.991  0.00  0.00    +0.000 C 
ENDBRANCH  15  18
ENDBRANCH   1  15
TORSDOF 4
