REMARK  Name = ligantes_elite\Elite_173.pdb
REMARK  5 active torsions:
REMARK  status: ('A' for Active; 'I' for Inactive)
REMARK    1  A    between atoms: C1_2  and  C2_3
REMARK    2  A    between atoms: C1_2  and  C5_6
REMARK    3  A    between atoms: C6_7  and  C7_8
REMARK    4  A    between atoms: C10_12  and  C11_13
REMARK    5  A    between atoms: C15_18  and  C16_19
REMARK                            x       y       z     vdW  Elec       q    Type
REMARK                         _______ _______ _______ _____ _____    ______ ____
ROOT
ATOM      1  C5  UNL     1       1.102  -0.315  -0.678  0.00  0.00    +0.000 C 
ATOM      2  C6  UNL     1       1.929  -1.145  -1.692  0.00  0.00    +0.000 C 
ATOM      3  C8  UNL     1       1.040  -2.333  -2.097  0.00  0.00    +0.000 C 
ATOM      4  C9  UNL     1       0.000  -2.435  -0.988  0.00  0.00    +0.000 C 
ATOM      5  C10 UNL     1      -0.300  -0.962  -0.682  0.00  0.00    +0.000 C 
ENDROOT
BRANCH   5   6
ATOM      6  C11 UNL     1      -1.181  -0.635   0.504  0.00  0.00    +0.000 C 
ATOM      7  C12 UNL     1      -1.350  -1.545   1.553  0.00  0.00    +0.000 C 
ATOM      8  N1  UNL     1      -2.086  -1.318   2.663  0.00  0.00    +0.000 NA
ATOM      9  C13 UNL     1      -2.683  -0.120   2.754  0.00  0.00    +0.000 C 
ATOM     10  C14 UNL     1      -2.580   0.858   1.781  0.00  0.00    +0.000 C 
ATOM     11  C15 UNL     1      -1.833   0.618   0.614  0.00  0.00    +0.000 C 
BRANCH  11  12
ATOM     12  C16 UNL     1      -1.724   1.709  -0.437  0.00  0.00    +0.000 C 
ATOM     13  C17 UNL     1      -2.367   1.528  -1.793  0.00  0.00    +0.000 C 
ATOM     14  C18 UNL     1      -2.939   2.522  -0.834  0.00  0.00    +0.000 C 
ENDBRANCH  11  12
ENDBRANCH   5   6
BRANCH   1  16
ATOM     15  O1  UNL     1       2.205  -1.401   1.188  0.00  0.00    +0.000 OA
ATOM     16  C1  UNL     1       1.753  -0.370   0.701  0.00  0.00    +0.000 C 
BRANCH  16  17
ATOM     17  C2  UNL     1       1.783   0.913   1.467  0.00  0.00    +0.000 C 
ATOM     18  C3  UNL     1       1.318   0.931   2.904  0.00  0.00    +0.000 C 
ATOM     19  C4  UNL     1       2.775   1.111   2.588  0.00  0.00    +0.000 C 
ENDBRANCH  16  17
ENDBRANCH   1  16
BRANCH   2  20
ATOM     20  C7  UNL     1       2.353  -0.320  -2.899  0.00  0.00    +0.000 C 
ATOM     21  F1  UNL     1       3.069  -1.107  -3.745  0.00  0.00    +0.000 F 
ENDBRANCH   2  20
TORSDOF 5
