REMARK  Name = ligantes_elite\Elite_161.pdb
REMARK  4 active torsions:
REMARK  status: ('A' for Active; 'I' for Inactive)
REMARK    1  A    between atoms: C1_1  and  O1_2
REMARK    2  A    between atoms: O1_2  and  C2_3
REMARK    3  A    between atoms: C2_3  and  C3_5
REMARK    4  A    between atoms: C7_10  and  C8_11
REMARK                            x       y       z     vdW  Elec       q    Type
REMARK                         _______ _______ _______ _____ _____    ______ ____
ROOT
ATOM      1  C3  UNL     1       0.928   0.069  -0.850  0.00  0.00    +0.000 C 
ATOM      2  C4  UNL     1       1.252  -0.639  -2.168  0.00  0.00    +0.000 C 
ATOM      3  F1  UNL     1       0.758   0.118  -3.190  0.00  0.00    +0.000 F 
ATOM      4  C5  UNL     1       0.478  -1.949  -2.143  0.00  0.00    +0.000 C 
ATOM      5  C6  UNL     1      -0.798  -1.591  -1.392  0.00  0.00    +0.000 C 
ATOM      6  C7  UNL     1      -0.288  -0.681  -0.268  0.00  0.00    +0.000 C 
ENDROOT
BRANCH   6   7
ATOM      7  C8  UNL     1      -1.336   0.152   0.440  0.00  0.00    +0.000 C 
ATOM      8  C9  UNL     1      -1.553  -0.135   1.795  0.00  0.00    +0.000 C 
ATOM      9  N1  UNL     1      -2.437   0.491   2.604  0.00  0.00    +0.000 NA
ATOM     10  C10 UNL     1      -3.167   1.473   2.053  0.00  0.00    +0.000 C 
ATOM     11  C11 UNL     1      -3.049   1.853   0.731  0.00  0.00    +0.000 C 
ATOM     12  C12 UNL     1      -2.125   1.186  -0.084  0.00  0.00    +0.000 C 
ATOM     13  I1  UNL     1      -2.065   1.882  -2.067  0.00  0.00    +0.000 I 
ENDBRANCH   6   7
BRANCH   1  14
ATOM     14  C2  UNL     1       2.095  -0.043   0.100  0.00  0.00    +0.000 C 
ATOM     15  O2  UNL     1       2.932  -0.936   0.078  0.00  0.00    +0.000 OA
BRANCH  14  17
ATOM     16  C1  UNL     1       3.101   0.929   1.981  0.00  0.00    +0.000 C 
ATOM     17  O1  UNL     1       2.051   0.965   1.013  0.00  0.00    +0.000 OA
ENDBRANCH  14  17
ENDBRANCH   1  14
TORSDOF 3
