REMARK  Name = ligantes_elite\Elite_123.pdb
REMARK  6 active torsions:
REMARK  status: ('A' for Active; 'I' for Inactive)
REMARK    1  A    between atoms: C1_1  and  C2_2
REMARK    2  A    between atoms: C2_2  and  C3_3
REMARK    3  A    between atoms: C3_3  and  C4_4
REMARK    4  A    between atoms: C4_4  and  C5_6
REMARK    5  A    between atoms: C6_7  and  O2_8
REMARK    6  A    between atoms: C9_11  and  C10_12
REMARK                            x       y       z     vdW  Elec       q    Type
REMARK                         _______ _______ _______ _____ _____    ______ ____
ROOT
ATOM      1  C5  UNL     1      -0.008   0.387   0.456  0.00  0.00    +0.000 C 
ATOM      2  C6  UNL     1      -0.286   1.704   1.196  0.00  0.00    +0.000 C 
ATOM      3  C7  UNL     1       0.451   2.778   0.409  0.00  0.00    +0.000 C 
ATOM      4  C8  UNL     1       1.676   2.043  -0.106  0.00  0.00    +0.000 C 
ATOM      5  C9  UNL     1       1.124   0.682  -0.567  0.00  0.00    +0.000 C 
ENDROOT
BRANCH   5   6
ATOM      6  C10 UNL     1       2.157  -0.417  -0.712  0.00  0.00    +0.000 C 
ATOM      7  C11 UNL     1       3.527  -0.181  -0.732  0.00  0.00    +0.000 C 
ATOM      8  N1  UNL     1       4.474  -1.138  -0.892  0.00  0.00    +0.000 NA
ATOM      9  C12 UNL     1       4.049  -2.406  -1.060  0.00  0.00    +0.000 C 
ATOM     10  C13 UNL     1       2.719  -2.759  -1.083  0.00  0.00    +0.000 C 
ATOM     11  C14 UNL     1       1.784  -1.748  -0.914  0.00  0.00    +0.000 C 
ATOM     12  F1  UNL     1       0.487  -2.082  -0.958  0.00  0.00    +0.000 F 
ENDBRANCH   5   6
BRANCH   1  13
ATOM     13  C4  UNL     1      -1.309  -0.037  -0.212  0.00  0.00    +0.000 C 
ATOM     14  O1  UNL     1      -1.690   0.481  -1.262  0.00  0.00    +0.000 OA
BRANCH  13  15
ATOM     15  C3  UNL     1      -2.130  -1.086   0.527  0.00  0.00    +0.000 C 
BRANCH  15  17
ATOM     16  C1  UNL     1      -4.486  -0.204   0.210  0.00  0.00    +0.000 C 
ATOM     17  C2  UNL     1      -3.508  -1.334  -0.081  0.00  0.00    +0.000 C 
ENDBRANCH  15  17
ENDBRANCH  13  15
ENDBRANCH   1  13
BRANCH   2  18
ATOM     18  O2  UNL     1       0.252   1.608   2.514  0.00  0.00    +0.000 OA
ATOM     19  H   UNL     1       1.200   1.409   2.463  0.00  0.00    +0.000 HD
ENDBRANCH   2  18
TORSDOF 5
