REMARK  Name = ligantes_elite\Elite_110.pdb
REMARK  6 active torsions:
REMARK  status: ('A' for Active; 'I' for Inactive)
REMARK    1  A    between atoms: C1_1  and  C2_2
REMARK    2  A    between atoms: C2_2  and  C3_3
REMARK    3  A    between atoms: C2_2  and  C4_4
REMARK    4  A    between atoms: C4_4  and  C5_6
REMARK    5  A    between atoms: C9_11  and  C10_12
REMARK    6  A    between atoms: C14_17  and  C15_18
REMARK                            x       y       z     vdW  Elec       q    Type
REMARK                         _______ _______ _______ _____ _____    ______ ____
ROOT
ATOM      1  C5  UNL     1      -0.892  -0.504   0.036  0.00  0.00    +0.000 C 
ATOM      2  C6  UNL     1      -1.594  -1.851   0.093  0.00  0.00    +0.000 C 
ATOM      3  F1  UNL     1      -2.911  -1.726   0.362  0.00  0.00    +0.000 F 
ATOM      4  C7  UNL     1      -1.371  -2.479  -1.271  0.00  0.00    +0.000 C 
ATOM      5  C8  UNL     1      -0.058  -1.888  -1.789  0.00  0.00    +0.000 C 
ATOM      6  C9  UNL     1       0.386  -0.813  -0.769  0.00  0.00    +0.000 C 
ENDROOT
BRANCH   6   7
ATOM      7  C10 UNL     1       1.532  -1.193   0.164  0.00  0.00    +0.000 C 
ATOM      8  C11 UNL     1       1.817  -2.526   0.479  0.00  0.00    +0.000 C 
ATOM      9  N1  UNL     1       2.774  -2.932   1.339  0.00  0.00    +0.000 NA
ATOM     10  C12 UNL     1       3.498  -1.967   1.930  0.00  0.00    +0.000 C 
ATOM     11  C13 UNL     1       3.302  -0.617   1.698  0.00  0.00    +0.000 C 
ATOM     12  C14 UNL     1       2.313  -0.192   0.794  0.00  0.00    +0.000 C 
BRANCH  12  13
ATOM     13  C15 UNL     1       2.090   1.294   0.571  0.00  0.00    +0.000 C 
ATOM     14  C16 UNL     1       3.260   2.248   0.455  0.00  0.00    +0.000 C 
ATOM     15  C17 UNL     1       2.449   1.922  -0.758  0.00  0.00    +0.000 C 
ENDBRANCH  12  13
ENDBRANCH   6   7
BRANCH   1  16
ATOM     16  C4  UNL     1      -1.773   0.537  -0.646  0.00  0.00    +0.000 C 
ATOM     17  O1  UNL     1      -1.629   0.833  -1.834  0.00  0.00    +0.000 OA
BRANCH  16  19
ATOM     18  C1  UNL     1      -4.104   1.461  -0.558  0.00  0.00    +0.000 C 
ATOM     19  C2  UNL     1      -2.814   1.237   0.224  0.00  0.00    +0.000 C 
ATOM     20  C3  UNL     1      -2.238   2.552   0.735  0.00  0.00    +0.000 C 
ENDBRANCH  16  19
ENDBRANCH   1  16
TORSDOF 4
