REMARK  Name = ligantes_elite\Elite_046.pdb
REMARK  5 active torsions:
REMARK  status: ('A' for Active; 'I' for Inactive)
REMARK    1  A    between atoms: C1_2  and  C2_4
REMARK    2  A    between atoms: C2_4  and  C3_6
REMARK    3  A    between atoms: C4_7  and  C5_8
REMARK    4  A    between atoms: C8_12  and  C9_13
REMARK    5  A    between atoms: C13_18  and  C14_19
REMARK                            x       y       z     vdW  Elec       q    Type
REMARK                         _______ _______ _______ _____ _____    ______ ____
ROOT
ATOM      1  C3  UNL     1       0.982  -0.495  -0.666  0.00  0.00    +0.000 C 
ATOM      2  C4  UNL     1       1.713  -1.850  -0.628  0.00  0.00    +0.000 C 
ATOM      3  C6  UNL     1       0.969  -2.632   0.451  0.00  0.00    +0.000 C 
ATOM      4  C7  UNL     1      -0.494  -2.292   0.196  0.00  0.00    +0.000 C 
ATOM      5  C8  UNL     1      -0.507  -0.885  -0.455  0.00  0.00    +0.000 C 
ENDROOT
BRANCH   5   6
ATOM      6  C9  UNL     1      -1.377   0.144   0.241  0.00  0.00    +0.000 C 
ATOM      7  C10 UNL     1      -1.395   0.236   1.638  0.00  0.00    +0.000 C 
ATOM      8  N2  UNL     1      -2.095   1.150   2.344  0.00  0.00    +0.000 NA
ATOM      9  C11 UNL     1      -2.840   2.021   1.641  0.00  0.00    +0.000 C 
ATOM     10  C12 UNL     1      -2.899   2.030   0.260  0.00  0.00    +0.000 C 
ATOM     11  C13 UNL     1      -2.157   1.086  -0.467  0.00  0.00    +0.000 C 
BRANCH  11  12
ATOM     12  C14 UNL     1      -2.218   1.133  -1.977  0.00  0.00    +0.000 C 
ATOM     13  F2  UNL     1      -2.685  -0.030  -2.514  0.00  0.00    +0.000 F 
ATOM     14  F3  UNL     1      -3.046   2.107  -2.456  0.00  0.00    +0.000 F 
ENDBRANCH  11  12
ENDBRANCH   5   6
BRANCH   1  15
ATOM     15  C2  UNL     1       1.494   0.519   0.350  0.00  0.00    +0.000 C 
ATOM     16  O2  UNL     1       1.998   0.233   1.430  0.00  0.00    +0.000 OA
BRANCH  15  18
ATOM     17  N1  UNL     1       1.671   2.874   0.971  0.00  0.00    +0.000 N 
ATOM     18  C1  UNL     1       1.310   2.000  -0.014  0.00  0.00    +0.000 C 
ATOM     19  O1  UNL     1       0.863   2.336  -1.098  0.00  0.00    +0.000 OA
ATOM     20  H   UNL     1       1.586   3.844   0.824  0.00  0.00    +0.000 HD
ATOM     21  H   UNL     1       2.016   2.534   1.828  0.00  0.00    +0.000 HD
ENDBRANCH  15  18
ENDBRANCH   1  15
BRANCH   2  22
ATOM     22  C5  UNL     1       3.217  -1.816  -0.415  0.00  0.00    +0.000 C 
ATOM     23  F1  UNL     1       3.705  -3.068  -0.637  0.00  0.00    +0.000 F 
ENDBRANCH   2  22
TORSDOF 5
