REMARK  Name = ligantes_elite\Elite_040.pdb
REMARK  5 active torsions:
REMARK  status: ('A' for Active; 'I' for Inactive)
REMARK    1  A    between atoms: C1_1  and  C2_2
REMARK    2  A    between atoms: C2_2  and  C3_3
REMARK    3  A    between atoms: C3_3  and  C4_5
REMARK    4  A    between atoms: C5_6  and  C6_7
REMARK    5  A    between atoms: C9_11  and  C10_12
REMARK                            x       y       z     vdW  Elec       q    Type
REMARK                         _______ _______ _______ _____ _____    ______ ____
ROOT
ATOM      1  C4  UNL     1      -0.329  -0.010  -1.009  0.00  0.00    +0.000 C 
ATOM      2  C5  UNL     1      -1.227   0.712  -2.032  0.00  0.00    +0.000 C 
ATOM      3  C7  UNL     1      -0.781   2.171  -1.867  0.00  0.00    +0.000 C 
ATOM      4  C8  UNL     1      -0.525   2.356  -0.369  0.00  0.00    +0.000 C 
ATOM      5  C9  UNL     1      -0.284   0.947   0.200  0.00  0.00    +0.000 C 
ENDROOT
BRANCH   5   6
ATOM      6  C10 UNL     1       0.901   0.774   1.128  0.00  0.00    +0.000 C 
ATOM      7  C11 UNL     1       0.618   0.276   2.410  0.00  0.00    +0.000 C 
ATOM      8  N1  UNL     1       1.531   0.032   3.374  0.00  0.00    +0.000 NA
ATOM      9  C12 UNL     1       2.814   0.307   3.080  0.00  0.00    +0.000 C 
ATOM     10  C13 UNL     1       3.222   0.799   1.855  0.00  0.00    +0.000 C 
ATOM     11  C14 UNL     1       2.256   1.025   0.866  0.00  0.00    +0.000 C 
ATOM     12  I1  UNL     1       3.035   1.738  -0.951  0.00  0.00    +0.000 I 
ENDBRANCH   5   6
BRANCH   1  13
ATOM     13  C3  UNL     1      -0.788  -1.398  -0.581  0.00  0.00    +0.000 C 
ATOM     14  O1  UNL     1      -1.930  -1.593  -0.171  0.00  0.00    +0.000 OA
BRANCH  13  16
ATOM     15  C1  UNL     1      -0.314  -3.867  -0.317  0.00  0.00    +0.000 C 
ATOM     16  C2  UNL     1       0.267  -2.491  -0.589  0.00  0.00    +0.000 C 
ENDBRANCH  13  16
ENDBRANCH   1  13
BRANCH   2  17
ATOM     17  C6  UNL     1      -2.738   0.575  -1.821  0.00  0.00    +0.000 C 
ATOM     18  F1  UNL     1      -3.375   1.405  -2.699  0.00  0.00    +0.000 F 
ENDBRANCH   2  17
TORSDOF 4
