REMARK  Name = ligantes_elite\Elite_181.pdb
REMARK  6 active torsions:
REMARK  status: ('A' for Active; 'I' for Inactive)
REMARK    1  A    between atoms: C1_1  and  C2_2
REMARK    2  A    between atoms: C2_2  and  C3_3
REMARK    3  A    between atoms: C2_2  and  C4_4
REMARK    4  A    between atoms: C4_4  and  C5_6
REMARK    5  A    between atoms: C6_7  and  O2_8
REMARK    6  A    between atoms: C9_11  and  C10_12
REMARK                            x       y       z     vdW  Elec       q    Type
REMARK                         _______ _______ _______ _____ _____    ______ ____
ROOT
ATOM      1  C5  UNL     1      -0.216  -0.740  -0.541  0.00  0.00    +0.000 C 
ATOM      2  C6  UNL     1      -0.783  -2.041   0.026  0.00  0.00    +0.000 C 
ATOM      3  C7  UNL     1       0.435  -2.713   0.649  0.00  0.00    +0.000 C 
ATOM      4  C8  UNL     1       1.240  -1.573   1.265  0.00  0.00    +0.000 C 
ATOM      5  C9  UNL     1       0.789  -0.290   0.536  0.00  0.00    +0.000 C 
ENDROOT
BRANCH   5   6
ATOM      6  C10 UNL     1       1.900   0.634   0.078  0.00  0.00    +0.000 C 
ATOM      7  C11 UNL     1       1.905   1.927   0.620  0.00  0.00    +0.000 C 
ATOM      8  N1  UNL     1       2.809   2.895   0.349  0.00  0.00    +0.000 NA
ATOM      9  C12 UNL     1       3.774   2.587  -0.532  0.00  0.00    +0.000 C 
ATOM     10  C13 UNL     1       3.879   1.352  -1.139  0.00  0.00    +0.000 C 
ATOM     11  C14 UNL     1       2.935   0.364  -0.829  0.00  0.00    +0.000 C 
ATOM     12  I1  UNL     1       3.242  -1.466  -1.817  0.00  0.00    +0.000 I 
ENDBRANCH   5   6
BRANCH   1  13
ATOM     13  C4  UNL     1      -1.250   0.343  -0.835  0.00  0.00    +0.000 C 
ATOM     14  O1  UNL     1      -1.141   1.031  -1.855  0.00  0.00    +0.000 OA
BRANCH  13  16
ATOM     15  C1  UNL     1      -2.519   2.117   0.391  0.00  0.00    +0.000 C 
ATOM     16  C2  UNL     1      -2.373   0.613   0.162  0.00  0.00    +0.000 C 
ATOM     17  C3  UNL     1      -3.674   0.013  -0.357  0.00  0.00    +0.000 C 
ENDBRANCH  13  16
ENDBRANCH   1  13
BRANCH   2  18
ATOM     18  O2  UNL     1      -1.340  -2.846  -0.996  0.00  0.00    +0.000 OA
ATOM     19  H   UNL     1      -0.664  -3.030  -1.667  0.00  0.00    +0.000 HD
ENDBRANCH   2  18
TORSDOF 4
