REMARK  Name = ligantes_elite\Elite_058.pdb
REMARK  7 active torsions:
REMARK  status: ('A' for Active; 'I' for Inactive)
REMARK    1  A    between atoms: C1_1  and  C2_2
REMARK    2  A    between atoms: C2_2  and  C3_3
REMARK    3  A    between atoms: C2_2  and  C4_4
REMARK    4  A    between atoms: C4_4  and  C5_6
REMARK    5  A    between atoms: C6_7  and  C7_8
REMARK    6  A    between atoms: C10_12  and  C11_13
REMARK    7  A    between atoms: C15_18  and  C16_19
REMARK                            x       y       z     vdW  Elec       q    Type
REMARK                         _______ _______ _______ _____ _____    ______ ____
ROOT
ATOM      1  C5  UNL     1      -0.612   0.898   0.221  0.00  0.00    +0.000 C 
ATOM      2  C6  UNL     1      -0.879   2.220   0.957  0.00  0.00    +0.000 C 
ATOM      3  C8  UNL     1       0.504   2.862   0.999  0.00  0.00    +0.000 C 
ATOM      4  C9  UNL     1       1.417   1.701   1.374  0.00  0.00    +0.000 C 
ATOM      5  C10 UNL     1       0.767   0.440   0.763  0.00  0.00    +0.000 C 
ENDROOT
BRANCH   5   6
ATOM      6  C11 UNL     1       1.652  -0.214  -0.283  0.00  0.00    +0.000 C 
ATOM      7  C12 UNL     1       1.954   0.456  -1.473  0.00  0.00    +0.000 C 
ATOM      8  N1  UNL     1       2.703  -0.048  -2.477  0.00  0.00    +0.000 NA
ATOM      9  C13 UNL     1       3.213  -1.278  -2.291  0.00  0.00    +0.000 C 
ATOM     10  C14 UNL     1       3.004  -2.027  -1.146  0.00  0.00    +0.000 C 
ATOM     11  C15 UNL     1       2.218  -1.494  -0.113  0.00  0.00    +0.000 C 
BRANCH  11  12
ATOM     12  C16 UNL     1       2.015  -2.315   1.135  0.00  0.00    +0.000 C 
ATOM     13  F2  UNL     1       2.373  -1.646   2.266  0.00  0.00    +0.000 F 
ENDBRANCH  11  12
ENDBRANCH   5   6
BRANCH   1  14
ATOM     14  C4  UNL     1      -1.683  -0.155   0.488  0.00  0.00    +0.000 C 
ATOM     15  O1  UNL     1      -2.408  -0.097   1.481  0.00  0.00    +0.000 OA
BRANCH  14  17
ATOM     16  C1  UNL     1      -2.324  -2.556   0.105  0.00  0.00    +0.000 C 
ATOM     17  C2  UNL     1      -1.832  -1.268  -0.548  0.00  0.00    +0.000 C 
ATOM     18  C3  UNL     1      -2.785  -0.810  -1.648  0.00  0.00    +0.000 C 
ENDBRANCH  14  17
ENDBRANCH   1  14
BRANCH   2  19
ATOM     19  C7  UNL     1      -1.917   3.092   0.272  0.00  0.00    +0.000 C 
ATOM     20  F1  UNL     1      -2.037   4.258   0.960  0.00  0.00    +0.000 F 
ENDBRANCH   2  19
TORSDOF 5
