REMARK  Name = ligantes_elite\Elite_163.pdb
REMARK  7 active torsions:
REMARK  status: ('A' for Active; 'I' for Inactive)
REMARK    1  A    between atoms: C1_1  and  C2_2
REMARK    2  A    between atoms: C2_2  and  C3_3
REMARK    3  A    between atoms: C2_2  and  C4_4
REMARK    4  A    between atoms: C4_4  and  C5_6
REMARK    5  A    between atoms: C6_7  and  C7_8
REMARK    6  A    between atoms: C10_11  and  C11_12
REMARK    7  A    between atoms: C15_17  and  C16_18
REMARK                            x       y       z     vdW  Elec       q    Type
REMARK                         _______ _______ _______ _____ _____    ______ ____
ROOT
ATOM      1  C5  UNL     1       0.844  -0.804   0.098  0.00  0.00    +0.000 C 
ATOM      2  C6  UNL     1       1.478  -2.105   0.653  0.00  0.00    +0.000 C 
ATOM      3  C7  UNL     1       1.956  -1.936   2.093  0.00  0.00    +0.000 C 
ATOM      4  C8  UNL     1       0.393  -3.195   0.543  0.00  0.00    +0.000 C 
ATOM      5  C9  UNL     1      -0.720  -2.597  -0.312  0.00  0.00    +0.000 C 
ATOM      6  C10 UNL     1      -0.667  -1.111   0.057  0.00  0.00    +0.000 C 
ENDROOT
BRANCH   6   7
ATOM      7  C11 UNL     1      -1.541  -0.168  -0.738  0.00  0.00    +0.000 C 
ATOM      8  C12 UNL     1      -1.643  -0.280  -2.129  0.00  0.00    +0.000 C 
ATOM      9  N1  UNL     1      -2.396   0.517  -2.917  0.00  0.00    +0.000 NA
ATOM     10  C13 UNL     1      -3.106   1.473  -2.299  0.00  0.00    +0.000 C 
ATOM     11  C14 UNL     1      -3.091   1.669  -0.930  0.00  0.00    +0.000 C 
ATOM     12  C15 UNL     1      -2.294   0.854  -0.108  0.00  0.00    +0.000 C 
BRANCH  12  13
ATOM     13  C16 UNL     1      -2.335   1.048   1.398  0.00  0.00    +0.000 C 
ATOM     14  C17 UNL     1      -1.135   1.585   2.142  0.00  0.00    +0.000 C 
ATOM     15  C18 UNL     1      -2.359   2.434   2.007  0.00  0.00    +0.000 C 
ENDBRANCH  12  13
ENDBRANCH   6   7
BRANCH   1  16
ATOM     16  C4  UNL     1       1.479  -0.495  -1.263  0.00  0.00    +0.000 C 
ATOM     17  O1  UNL     1       1.390  -1.289  -2.204  0.00  0.00    +0.000 OA
BRANCH  16  19
ATOM     18  C1  UNL     1       1.381   2.023  -1.365  0.00  0.00    +0.000 C 
ATOM     19  C2  UNL     1       2.277   0.795  -1.434  0.00  0.00    +0.000 C 
ATOM     20  C3  UNL     1       3.432   0.873  -0.443  0.00  0.00    +0.000 C 
ENDBRANCH  16  19
ENDBRANCH   1  16
TORSDOF 4
