REMARK  Name = ligantes_elite\Elite_016.pdb
REMARK  3 active torsions:
REMARK  status: ('A' for Active; 'I' for Inactive)
REMARK    1  A    between atoms: C1_2  and  C2_4
REMARK    2  A    between atoms: C2_4  and  C3_6
REMARK    3  A    between atoms: C7_11  and  C8_12
REMARK                            x       y       z     vdW  Elec       q    Type
REMARK                         _______ _______ _______ _____ _____    ______ ____
ROOT
ATOM      1  C3  UNL     1      -0.961  -0.306  -0.696  0.00  0.00    +0.000 C 
ATOM      2  C4  UNL     1      -1.769  -1.583  -0.556  0.00  0.00    +0.000 C 
ATOM      3  F1  UNL     1      -2.397  -1.586   0.651  0.00  0.00    +0.000 F 
ATOM      4  C5  UNL     1      -0.712  -2.673  -0.548  0.00  0.00    +0.000 C 
ATOM      5  C6  UNL     1       0.450  -2.076   0.249  0.00  0.00    +0.000 C 
ATOM      6  C7  UNL     1       0.232  -0.545   0.242  0.00  0.00    +0.000 C 
ENDROOT
BRANCH   6   7
ATOM      7  C8  UNL     1       1.457   0.295  -0.051  0.00  0.00    +0.000 C 
ATOM      8  C9  UNL     1       1.826   1.249   0.904  0.00  0.00    +0.000 C 
ATOM      9  N2  UNL     1       2.884   2.087   0.803  0.00  0.00    +0.000 NA
ATOM     10  C10 UNL     1       3.634   1.989  -0.307  0.00  0.00    +0.000 C 
ATOM     11  C11 UNL     1       3.372   1.091  -1.321  0.00  0.00    +0.000 C 
ATOM     12  C12 UNL     1       2.273   0.238  -1.191  0.00  0.00    +0.000 C 
ATOM     13 BR1  UNL     1       1.992  -0.955  -2.645  0.00  0.00    +0.000 Br
ENDBRANCH   6   7
BRANCH   1  14
ATOM     14  C2  UNL     1      -1.868   0.884  -0.485  0.00  0.00    +0.000 C 
ATOM     15  O2  UNL     1      -2.449   1.430  -1.425  0.00  0.00    +0.000 OA
BRANCH  14  17
ATOM     16  N1  UNL     1      -3.489   1.851   1.049  0.00  0.00    +0.000 N 
ATOM     17  C1  UNL     1      -2.214   1.366   0.930  0.00  0.00    +0.000 C 
ATOM     18  O1  UNL     1      -1.416   1.360   1.848  0.00  0.00    +0.000 OA
ATOM     19  H   UNL     1      -3.809   2.185   1.918  0.00  0.00    +0.000 HD
ATOM     20  H   UNL     1      -4.085   1.865   0.266  0.00  0.00    +0.000 HD
ENDBRANCH  14  17
ENDBRANCH   1  14
TORSDOF 3
