REMARK  Name = ligantes_elite\Elite_134.pdb
REMARK  6 active torsions:
REMARK  status: ('A' for Active; 'I' for Inactive)
REMARK    1  A    between atoms: C1_1  and  O1_2
REMARK    2  A    between atoms: O1_2  and  C2_3
REMARK    3  A    between atoms: C2_3  and  C3_5
REMARK    4  A    between atoms: C4_6  and  C5_7
REMARK    5  A    between atoms: C8_11  and  C9_12
REMARK    6  A    between atoms: C13_17  and  C14_18
REMARK                            x       y       z     vdW  Elec       q    Type
REMARK                         _______ _______ _______ _____ _____    ______ ____
ROOT
ATOM      1  C3  UNL     1      -0.872  -0.256  -0.933  0.00  0.00    +0.000 C 
ATOM      2  C4  UNL     1      -1.684  -1.549  -1.223  0.00  0.00    +0.000 C 
ATOM      3  C6  UNL     1      -1.257  -2.568  -0.161  0.00  0.00    +0.000 C 
ATOM      4  C7  UNL     1       0.114  -2.109   0.296  0.00  0.00    +0.000 C 
ATOM      5  C8  UNL     1      -0.019  -0.584   0.317  0.00  0.00    +0.000 C 
ENDROOT
BRANCH   5   6
ATOM      6  C9  UNL     1       1.336   0.096   0.382  0.00  0.00    +0.000 C 
ATOM      7  C10 UNL     1       2.226   0.007  -0.694  0.00  0.00    +0.000 C 
ATOM      8  N1  UNL     1       3.448   0.584  -0.740  0.00  0.00    +0.000 NA
ATOM      9  C11 UNL     1       3.826   1.280   0.346  0.00  0.00    +0.000 C 
ATOM     10  C12 UNL     1       3.039   1.423   1.475  0.00  0.00    +0.000 C 
ATOM     11  C13 UNL     1       1.773   0.820   1.509  0.00  0.00    +0.000 C 
BRANCH  11  12
ATOM     12  C14 UNL     1       0.929   0.982   2.747  0.00  0.00    +0.000 C 
ATOM     13  F2  UNL     1       0.500  -0.206   3.256  0.00  0.00    +0.000 F 
ENDBRANCH  11  12
ENDBRANCH   5   6
BRANCH   1  14
ATOM     14  C2  UNL     1      -1.798   0.934  -0.732  0.00  0.00    +0.000 C 
ATOM     15  O2  UNL     1      -2.925   1.015  -1.203  0.00  0.00    +0.000 OA
BRANCH  14  17
ATOM     16  C1  UNL     1      -1.977   3.106   0.129  0.00  0.00    +0.000 C 
ATOM     17  O1  UNL     1      -1.185   1.928  -0.034  0.00  0.00    +0.000 OA
ENDBRANCH  14  17
ENDBRANCH   1  14
BRANCH   2  18
ATOM     18  C5  UNL     1      -1.413  -2.047  -2.640  0.00  0.00    +0.000 C 
ATOM     19  F1  UNL     1      -0.078  -2.253  -2.797  0.00  0.00    +0.000 F 
ENDBRANCH   2  18
TORSDOF 5
