REMARK  Name = ligantes_elite\Elite_081.pdb
REMARK  5 active torsions:
REMARK  status: ('A' for Active; 'I' for Inactive)
REMARK    1  A    between atoms: N1_1  and  C1_2
REMARK    2  A    between atoms: C5_7  and  C6_8
REMARK    3  A    between atoms: C9_11  and  O1_12
REMARK    4  A    between atoms: C10_13  and  C11_14
REMARK    5  A    between atoms: C11_14  and  C12_16
REMARK                            x       y       z     vdW  Elec       q    Type
REMARK                         _______ _______ _______ _____ _____    ______ ____
ROOT
ATOM      1  C6  UNL     1      -0.828  -0.069  -0.951  0.00  0.00    +0.000 C 
ATOM      2  C7  UNL     1      -0.951   0.306  -2.437  0.00  0.00    +0.000 C 
ATOM      3  C8  UNL     1       0.408  -0.093  -2.983  0.00  0.00    +0.000 C 
ATOM      4  C9  UNL     1       1.367   0.439  -1.924  0.00  0.00    +0.000 C 
ATOM      5  C10 UNL     1       0.638   0.277  -0.578  0.00  0.00    +0.000 C 
ENDROOT
BRANCH   1  11
ATOM      6  C1  UNL     1      -2.337  -0.154   1.109  0.00  0.00    +0.000 C 
ATOM      7  C2  UNL     1      -3.328   0.444   1.891  0.00  0.00    +0.000 C 
ATOM      8  C3  UNL     1      -3.699   1.750   1.627  0.00  0.00    +0.000 C 
ATOM      9  N2  UNL     1      -3.175   2.485   0.630  0.00  0.00    +0.000 NA
ATOM     10  C4  UNL     1      -2.271   1.865  -0.160  0.00  0.00    +0.000 C 
ATOM     11  C5  UNL     1      -1.835   0.547  -0.003  0.00  0.00    +0.000 C 
BRANCH   6  12
ATOM     12  N1  UNL     1      -2.037  -1.507   1.338  0.00  0.00    +0.000 N 
ATOM     13  H   UNL     1      -2.406  -1.966   2.127  0.00  0.00    +0.000 HD
ATOM     14  H   UNL     1      -1.458  -1.996   0.710  0.00  0.00    +0.000 HD
ENDBRANCH   6  12
ENDBRANCH   1  11
BRANCH   4  15
ATOM     15  O1  UNL     1       2.619  -0.212  -1.991  0.00  0.00    +0.000 OA
ATOM     16  H   UNL     1       2.495  -1.166  -1.865  0.00  0.00    +0.000 HD
ENDBRANCH   4  15
BRANCH   5  17
ATOM     17  C11 UNL     1       1.256  -0.763   0.345  0.00  0.00    +0.000 C 
ATOM     18  O2  UNL     1       0.718  -1.832   0.624  0.00  0.00    +0.000 OA
BRANCH  17  19
ATOM     19  C12 UNL     1       2.537  -0.366   1.007  0.00  0.00    +0.000 C 
ATOM     20  C13 UNL     1       2.688  -0.526   2.502  0.00  0.00    +0.000 C 
ATOM     21  C14 UNL     1       3.464  -1.415   1.573  0.00  0.00    +0.000 C 
ENDBRANCH  17  19
ENDBRANCH   5  17
TORSDOF 5
