REMARK  Name = ligantes_elite\Elite_154.pdb
REMARK  6 active torsions:
REMARK  status: ('A' for Active; 'I' for Inactive)
REMARK    1  A    between atoms: C1_1  and  C2_2
REMARK    2  A    between atoms: C2_2  and  C3_3
REMARK    3  A    between atoms: C2_2  and  C4_4
REMARK    4  A    between atoms: C4_4  and  C5_6
REMARK    5  A    between atoms: C9_11  and  C10_12
REMARK    6  A    between atoms: C14_17  and  C15_18
REMARK                            x       y       z     vdW  Elec       q    Type
REMARK                         _______ _______ _______ _____ _____    ______ ____
ROOT
ATOM      1  C5  UNL     1      -0.592  -0.532   0.751  0.00  0.00    +0.000 C 
ATOM      2  C6  UNL     1      -0.942  -1.621   1.753  0.00  0.00    +0.000 C 
ATOM      3  F1  UNL     1      -2.016  -2.340   1.368  0.00  0.00    +0.000 F 
ATOM      4  C7  UNL     1       0.302  -2.491   1.868  0.00  0.00    +0.000 C 
ATOM      5  C8  UNL     1       1.480  -1.580   1.503  0.00  0.00    +0.000 C 
ATOM      6  C9  UNL     1       0.858  -0.208   1.158  0.00  0.00    +0.000 C 
ENDROOT
BRANCH   6   7
ATOM      7  C10 UNL     1       1.604   0.723   0.224  0.00  0.00    +0.000 C 
ATOM      8  C11 UNL     1       2.444   0.253  -0.782  0.00  0.00    +0.000 C 
ATOM      9  N1  UNL     1       3.133   1.043  -1.639  0.00  0.00    +0.000 NA
ATOM     10  C12 UNL     1       2.982   2.374  -1.518  0.00  0.00    +0.000 C 
ATOM     11  C13 UNL     1       2.163   2.958  -0.576  0.00  0.00    +0.000 C 
ATOM     12  C14 UNL     1       1.463   2.123   0.301  0.00  0.00    +0.000 C 
BRANCH  12  13
ATOM     13  C15 UNL     1       0.594   2.740   1.262  0.00  0.00    +0.000 C 
ATOM     14  N2  UNL     1      -0.130   3.213   2.036  0.00  0.00    +0.000 NA
ENDBRANCH  12  13
ENDBRANCH   6   7
BRANCH   1  15
ATOM     15  C4  UNL     1      -0.738  -1.043  -0.681  0.00  0.00    +0.000 C 
ATOM     16  O1  UNL     1       0.062  -1.853  -1.156  0.00  0.00    +0.000 OA
BRANCH  15  18
ATOM     17  C1  UNL     1      -1.642   0.963  -1.886  0.00  0.00    +0.000 C 
ATOM     18  C2  UNL     1      -1.877  -0.504  -1.543  0.00  0.00    +0.000 C 
ATOM     19  C3  UNL     1      -3.243  -0.725  -0.905  0.00  0.00    +0.000 C 
ENDBRANCH  15  18
ENDBRANCH   1  15
TORSDOF 4
