REMARK  Name = ligantes_elite\Elite_179.pdb
REMARK  6 active torsions:
REMARK  status: ('A' for Active; 'I' for Inactive)
REMARK    1  A    between atoms: C1_1  and  C2_2
REMARK    2  A    between atoms: C2_2  and  C3_3
REMARK    3  A    between atoms: C3_3  and  C4_4
REMARK    4  A    between atoms: C4_4  and  C5_6
REMARK    5  A    between atoms: C6_7  and  C7_8
REMARK    6  A    between atoms: C10_11  and  C11_12
REMARK                            x       y       z     vdW  Elec       q    Type
REMARK                         _______ _______ _______ _____ _____    ______ ____
ROOT
ATOM      1  C5  UNL     1      -0.146  -0.855  -0.092  0.00  0.00    +0.000 C 
ATOM      2  C6  UNL     1       0.000  -2.317  -0.546  0.00  0.00    +0.000 C 
ATOM      3  C7  UNL     1       0.147  -3.329   0.593  0.00  0.00    +0.000 C 
ATOM      4  C8  UNL     1       1.264  -2.258  -1.404  0.00  0.00    +0.000 C 
ATOM      5  C9  UNL     1       2.207  -1.335  -0.638  0.00  0.00    +0.000 C 
ATOM      6  C10 UNL     1       1.303  -0.349   0.139  0.00  0.00    +0.000 C 
ENDROOT
BRANCH   6   7
ATOM      7  C11 UNL     1       1.487   1.097  -0.292  0.00  0.00    +0.000 C 
ATOM      8  C12 UNL     1       1.352   1.435  -1.643  0.00  0.00    +0.000 C 
ATOM      9  N1  UNL     1       1.462   2.682  -2.155  0.00  0.00    +0.000 NA
ATOM     10  C13 UNL     1       1.732   3.670  -1.285  0.00  0.00    +0.000 C 
ATOM     11  C14 UNL     1       1.893   3.466   0.071  0.00  0.00    +0.000 C 
ATOM     12  C15 UNL     1       1.769   2.166   0.571  0.00  0.00    +0.000 C 
ATOM     13  I1  UNL     1       2.044   1.970   2.644  0.00  0.00    +0.000 I 
ENDBRANCH   6   7
BRANCH   1  14
ATOM     14  C4  UNL     1      -1.061  -0.693   1.116  0.00  0.00    +0.000 C 
ATOM     15  O1  UNL     1      -0.631  -0.634   2.267  0.00  0.00    +0.000 OA
BRANCH  14  16
ATOM     16  C3  UNL     1      -2.552  -0.638   0.842  0.00  0.00    +0.000 C 
BRANCH  16  18
ATOM     17  C1  UNL     1      -2.683   1.846   0.348  0.00  0.00    +0.000 C 
ATOM     18  C2  UNL     1      -3.150   0.707   1.243  0.00  0.00    +0.000 C 
ENDBRANCH  16  18
ENDBRANCH  14  16
ENDBRANCH   1  14
TORSDOF 4
