REMARK  Name = ligantes_elite\Elite_006.pdb
REMARK  5 active torsions:
REMARK  status: ('A' for Active; 'I' for Inactive)
REMARK    1  A    between atoms: C1_1  and  C2_2
REMARK    2  A    between atoms: C2_2  and  C3_3
REMARK    3  A    between atoms: C2_2  and  C4_4
REMARK    4  A    between atoms: C4_4  and  C5_6
REMARK    5  A    between atoms: C9_11  and  C10_12
REMARK                            x       y       z     vdW  Elec       q    Type
REMARK                         _______ _______ _______ _____ _____    ______ ____
ROOT
ATOM      1  C5  UNL     1      -0.573   0.052   0.915  0.00  0.00    +0.000 C 
ATOM      2  C6  UNL     1      -0.471  -1.456   1.108  0.00  0.00    +0.000 C 
ATOM      3  F1  UNL     1      -1.549  -1.876   1.823  0.00  0.00    +0.000 F 
ATOM      4  C7  UNL     1       0.799  -1.703   1.916  0.00  0.00    +0.000 C 
ATOM      5  C8  UNL     1       1.350  -0.316   2.245  0.00  0.00    +0.000 C 
ATOM      6  C9  UNL     1       0.869   0.582   1.088  0.00  0.00    +0.000 C 
ENDROOT
BRANCH   6   7
ATOM      7  C10 UNL     1       1.880   0.552  -0.050  0.00  0.00    +0.000 C 
ATOM      8  C11 UNL     1       1.749  -0.301  -1.146  0.00  0.00    +0.000 C 
ATOM      9  N1  UNL     1       2.633  -0.418  -2.166  0.00  0.00    +0.000 NA
ATOM     10  C12 UNL     1       3.714   0.378  -2.129  0.00  0.00    +0.000 C 
ATOM     11  C13 UNL     1       3.959   1.275  -1.110  0.00  0.00    +0.000 C 
ATOM     12  C14 UNL     1       3.036   1.357  -0.063  0.00  0.00    +0.000 C 
ATOM     13  I1  UNL     1       3.513   2.747   1.452  0.00  0.00    +0.000 I 
ENDBRANCH   6   7
BRANCH   1  14
ATOM     14  C4  UNL     1      -1.316   0.500  -0.335  0.00  0.00    +0.000 C 
ATOM     15  O1  UNL     1      -0.897   1.442  -1.009  0.00  0.00    +0.000 OA
BRANCH  14  17
ATOM     16  C1  UNL     1      -3.052   0.089  -2.113  0.00  0.00    +0.000 C 
ATOM     17  C2  UNL     1      -2.652  -0.175  -0.662  0.00  0.00    +0.000 C 
ATOM     18  C3  UNL     1      -3.734   0.320   0.291  0.00  0.00    +0.000 C 
ENDBRANCH  14  17
ENDBRANCH   1  14
TORSDOF 3
