REMARK  Name = ligantes_elite\Elite_125.pdb
REMARK  5 active torsions:
REMARK  status: ('A' for Active; 'I' for Inactive)
REMARK    1  A    between atoms: C1_1  and  C2_2
REMARK    2  A    between atoms: C2_2  and  C3_3
REMARK    3  A    between atoms: C3_3  and  C4_5
REMARK    4  A    between atoms: C8_10  and  C9_11
REMARK    5  A    between atoms: C13_16  and  N2_17
REMARK                            x       y       z     vdW  Elec       q    Type
REMARK                         _______ _______ _______ _____ _____    ______ ____
ROOT
ATOM      1  C4  UNL     1      -0.593  -0.861   0.224  0.00  0.00    +0.000 C 
ATOM      2  C5  UNL     1      -0.855  -2.367   0.163  0.00  0.00    +0.000 C 
ATOM      3  F1  UNL     1      -1.446  -2.732   1.337  0.00  0.00    +0.000 F 
ATOM      4  C6  UNL     1       0.503  -3.051   0.069  0.00  0.00    +0.000 C 
ATOM      5  C7  UNL     1       1.471  -2.022   0.636  0.00  0.00    +0.000 C 
ATOM      6  C8  UNL     1       0.929  -0.709   0.051  0.00  0.00    +0.000 C 
ENDROOT
BRANCH   6   7
ATOM      7  C9  UNL     1       1.464   0.577   0.644  0.00  0.00    +0.000 C 
ATOM      8  C10 UNL     1       1.764   0.683   2.005  0.00  0.00    +0.000 C 
ATOM      9  N1  UNL     1       2.264   1.785   2.607  0.00  0.00    +0.000 NA
ATOM     10  C11 UNL     1       2.506   2.842   1.812  0.00  0.00    +0.000 C 
ATOM     11  C12 UNL     1       2.230   2.859   0.457  0.00  0.00    +0.000 C 
ATOM     12  C13 UNL     1       1.642   1.737  -0.132  0.00  0.00    +0.000 C 
BRANCH  12  13
ATOM     13  N2  UNL     1       1.447   1.742  -1.524  0.00  0.00    +0.000 N 
ATOM     14  H   UNL     1       1.035   0.965  -1.966  0.00  0.00    +0.000 HD
ATOM     15  H   UNL     1       1.723   2.523  -2.057  0.00  0.00    +0.000 HD
ENDBRANCH  12  13
ENDBRANCH   6   7
BRANCH   1  16
ATOM     16  C3  UNL     1      -1.403  -0.159  -0.851  0.00  0.00    +0.000 C 
ATOM     17  O1  UNL     1      -0.907   0.155  -1.935  0.00  0.00    +0.000 OA
BRANCH  16  19
ATOM     18  C1  UNL     1      -3.596   0.815  -1.648  0.00  0.00    +0.000 C 
ATOM     19  C2  UNL     1      -2.861   0.116  -0.518  0.00  0.00    +0.000 C 
ENDBRANCH  16  19
ENDBRANCH   1  16
TORSDOF 4
