REMARK  Name = ligantes_elite\Elite_137.pdb
REMARK  5 active torsions:
REMARK  status: ('A' for Active; 'I' for Inactive)
REMARK    1  A    between atoms: C1_1  and  O1_2
REMARK    2  A    between atoms: O1_2  and  C2_3
REMARK    3  A    between atoms: C2_3  and  C3_5
REMARK    4  A    between atoms: C4_6  and  C5_7
REMARK    5  A    between atoms: C8_11  and  C9_12
REMARK                            x       y       z     vdW  Elec       q    Type
REMARK                         _______ _______ _______ _____ _____    ______ ____
ROOT
ATOM      1  C3  UNL     1       0.733  -0.118  -0.345  0.00  0.00    +0.000 C 
ATOM      2  C4  UNL     1       1.666  -1.332  -0.496  0.00  0.00    +0.000 C 
ATOM      3  C6  UNL     1       0.689  -2.505  -0.370  0.00  0.00    +0.000 C 
ATOM      4  C7  UNL     1      -0.259  -2.087   0.748  0.00  0.00    +0.000 C 
ATOM      5  C8  UNL     1      -0.374  -0.548   0.650  0.00  0.00    +0.000 C 
ENDROOT
BRANCH   5   6
ATOM      6  C9  UNL     1      -1.738  -0.040   0.214  0.00  0.00    +0.000 C 
ATOM      7  C10 UNL     1      -2.447  -0.682  -0.803  0.00  0.00    +0.000 C 
ATOM      8  N1  UNL     1      -3.653  -0.294  -1.277  0.00  0.00    +0.000 NA
ATOM      9  C11 UNL     1      -4.203   0.801  -0.721  0.00  0.00    +0.000 C 
ATOM     10  C12 UNL     1      -3.595   1.530   0.280  0.00  0.00    +0.000 C 
ATOM     11  C13 UNL     1      -2.350   1.106   0.745  0.00  0.00    +0.000 C 
ATOM     12 BR1  UNL     1      -1.553   2.171   2.102  0.00  0.00    +0.000 Br
ENDBRANCH   5   6
BRANCH   1  13
ATOM     13  C2  UNL     1       1.437   1.142   0.110  0.00  0.00    +0.000 C 
ATOM     14  O2  UNL     1       1.934   1.293   1.218  0.00  0.00    +0.000 OA
BRANCH  13  16
ATOM     15  C1  UNL     1       2.085   3.295  -0.536  0.00  0.00    +0.000 C 
ATOM     16  O1  UNL     1       1.452   2.064  -0.889  0.00  0.00    +0.000 OA
ENDBRANCH  13  16
ENDBRANCH   1  13
BRANCH   2  17
ATOM     17  C5  UNL     1       2.795  -1.433   0.531  0.00  0.00    +0.000 C 
ATOM     18  F1  UNL     1       3.472  -2.595   0.311  0.00  0.00    +0.000 F 
ENDBRANCH   2  17
TORSDOF 4
