REMARK  Name = ligantes_elite\Elite_030.pdb
REMARK  4 active torsions:
REMARK  status: ('A' for Active; 'I' for Inactive)
REMARK    1  A    between atoms: C1_2  and  C2_3
REMARK    2  A    between atoms: C1_2  and  C5_6
REMARK    3  A    between atoms: C9_11  and  C10_12
REMARK    4  A    between atoms: C14_17  and  C15_18
REMARK                            x       y       z     vdW  Elec       q    Type
REMARK                         _______ _______ _______ _____ _____    ______ ____
ROOT
ATOM      1  C5  UNL     1       0.805   1.182  -0.523  0.00  0.00    +0.000 C 
ATOM      2  C6  UNL     1       1.365   2.092  -1.609  0.00  0.00    +0.000 C 
ATOM      3  F1  UNL     1       0.866   3.346  -1.397  0.00  0.00    +0.000 F 
ATOM      4  C7  UNL     1       0.802   1.591  -2.936  0.00  0.00    +0.000 C 
ATOM      5  C8  UNL     1      -0.320   0.610  -2.585  0.00  0.00    +0.000 C 
ATOM      6  C9  UNL     1      -0.576   0.805  -1.080  0.00  0.00    +0.000 C 
ENDROOT
BRANCH   6   7
ATOM      7  C10 UNL     1      -1.303  -0.303  -0.346  0.00  0.00    +0.000 C 
ATOM      8  C11 UNL     1      -1.130  -1.647  -0.692  0.00  0.00    +0.000 C 
ATOM      9  N1  UNL     1      -1.729  -2.691  -0.075  0.00  0.00    +0.000 NA
ATOM     10  C12 UNL     1      -2.547  -2.403   0.950  0.00  0.00    +0.000 C 
ATOM     11  C13 UNL     1      -2.791  -1.115   1.391  0.00  0.00    +0.000 C 
ATOM     12  C14 UNL     1      -2.161  -0.041   0.745  0.00  0.00    +0.000 C 
BRANCH  12  13
ATOM     13  C15 UNL     1      -2.435   1.355   1.244  0.00  0.00    +0.000 C 
ATOM     14  F2  UNL     1      -1.298   2.013   1.598  0.00  0.00    +0.000 F 
ENDBRANCH  12  13
ENDBRANCH   6   7
BRANCH   1  16
ATOM     15  O1  UNL     1       2.365  -0.526  -1.210  0.00  0.00    +0.000 OA
ATOM     16  C1  UNL     1       1.723  -0.002  -0.306  0.00  0.00    +0.000 C 
BRANCH  16  17
ATOM     17  C2  UNL     1       1.792  -0.530   1.090  0.00  0.00    +0.000 C 
ATOM     18  C3  UNL     1       1.911  -2.017   1.327  0.00  0.00    +0.000 C 
ATOM     19  C4  UNL     1       3.078  -1.118   1.618  0.00  0.00    +0.000 C 
ENDBRANCH  16  17
ENDBRANCH   1  16
TORSDOF 4
