REMARK  Name = ligantes_elite\Elite_158.pdb
REMARK  5 active torsions:
REMARK  status: ('A' for Active; 'I' for Inactive)
REMARK    1  A    between atoms: C1_2  and  C2_3
REMARK    2  A    between atoms: C1_2  and  C5_6
REMARK    3  A    between atoms: C6_7  and  O2_8
REMARK    4  A    between atoms: C9_11  and  C10_12
REMARK    5  A    between atoms: C14_17  and  C15_18
REMARK                            x       y       z     vdW  Elec       q    Type
REMARK                         _______ _______ _______ _____ _____    ______ ____
ROOT
ATOM      1  C5  UNL     1      -0.956  -0.880   0.213  0.00  0.00    +0.000 C 
ATOM      2  C6  UNL     1      -1.445  -2.329   0.094  0.00  0.00    +0.000 C 
ATOM      3  C7  UNL     1      -0.141  -3.118   0.096  0.00  0.00    +0.000 C 
ATOM      4  C8  UNL     1       0.802  -2.285  -0.778  0.00  0.00    +0.000 C 
ATOM      5  C9  UNL     1       0.250  -0.843  -0.748  0.00  0.00    +0.000 C 
ENDROOT
BRANCH   5   6
ATOM      6  C10 UNL     1       1.257   0.261  -0.484  0.00  0.00    +0.000 C 
ATOM      7  C11 UNL     1       1.244   1.343  -1.379  0.00  0.00    +0.000 C 
ATOM      8  N1  UNL     1       2.033   2.436  -1.303  0.00  0.00    +0.000 NA
ATOM      9  C12 UNL     1       2.908   2.476  -0.287  0.00  0.00    +0.000 C 
ATOM     10  C13 UNL     1       3.022   1.469   0.653  0.00  0.00    +0.000 C 
ATOM     11  C14 UNL     1       2.187   0.336   0.575  0.00  0.00    +0.000 C 
BRANCH  11  12
ATOM     12  C15 UNL     1       2.405  -0.733   1.621  0.00  0.00    +0.000 C 
ATOM     13  F1  UNL     1       1.253  -1.257   2.115  0.00  0.00    +0.000 F 
ATOM     14  F2  UNL     1       3.077  -0.275   2.719  0.00  0.00    +0.000 F 
ENDBRANCH  11  12
ENDBRANCH   5   6
BRANCH   1  16
ATOM     15  O1  UNL     1      -3.036  -0.152  -0.780  0.00  0.00    +0.000 OA
ATOM     16  C1  UNL     1      -2.031   0.132  -0.134  0.00  0.00    +0.000 C 
BRANCH  16  17
ATOM     17  C2  UNL     1      -1.807   1.524   0.358  0.00  0.00    +0.000 C 
ATOM     18  C3  UNL     1      -2.974   2.459   0.570  0.00  0.00    +0.000 C 
ATOM     19  C4  UNL     1      -2.031   2.691  -0.575  0.00  0.00    +0.000 C 
ENDBRANCH  16  17
ENDBRANCH   1  16
BRANCH   2  20
ATOM     20  O2  UNL     1      -2.089  -2.595  -1.149  0.00  0.00    +0.000 OA
ATOM     21  H   UNL     1      -1.481  -2.394  -1.878  0.00  0.00    +0.000 HD
ENDBRANCH   2  20
TORSDOF 5
