REMARK  Name = ligantes_elite\Elite_127.pdb
REMARK  7 active torsions:
REMARK  status: ('A' for Active; 'I' for Inactive)
REMARK    1  A    between atoms: C1_1  and  C2_2
REMARK    2  A    between atoms: C2_2  and  C3_3
REMARK    3  A    between atoms: C3_3  and  C4_4
REMARK    4  A    between atoms: C4_4  and  C5_6
REMARK    5  A    between atoms: C6_7  and  C7_8
REMARK    6  A    between atoms: C10_12  and  C11_13
REMARK    7  A    between atoms: C15_18  and  C16_19
REMARK                            x       y       z     vdW  Elec       q    Type
REMARK                         _______ _______ _______ _____ _____    ______ ____
ROOT
ATOM      1  C5  UNL     1       0.669   0.191  -1.169  0.00  0.00    +0.000 C 
ATOM      2  C6  UNL     1       1.484   1.144  -2.079  0.00  0.00    +0.000 C 
ATOM      3  C8  UNL     1       0.637   2.415  -2.228  0.00  0.00    +0.000 C 
ATOM      4  C9  UNL     1      -0.266   2.414  -1.003  0.00  0.00    +0.000 C 
ATOM      5  C10 UNL     1      -0.657   0.934  -0.886  0.00  0.00    +0.000 C 
ENDROOT
BRANCH   5   6
ATOM      6  C11 UNL     1      -1.427   0.514   0.347  0.00  0.00    +0.000 C 
ATOM      7  C12 UNL     1      -1.197   1.118   1.585  0.00  0.00    +0.000 C 
ATOM      8  N1  UNL     1      -1.838   0.797   2.733  0.00  0.00    +0.000 NA
ATOM      9  C13 UNL     1      -2.755  -0.182   2.669  0.00  0.00    +0.000 C 
ATOM     10  C14 UNL     1      -3.064  -0.857   1.503  0.00  0.00    +0.000 C 
ATOM     11  C15 UNL     1      -2.394  -0.518   0.317  0.00  0.00    +0.000 C 
BRANCH  11  12
ATOM     12  C16 UNL     1      -2.770  -1.251  -0.949  0.00  0.00    +0.000 C 
ATOM     13  F2  UNL     1      -1.685  -1.686  -1.649  0.00  0.00    +0.000 F 
ATOM     14  F3  UNL     1      -3.522  -2.366  -0.726  0.00  0.00    +0.000 F 
ENDBRANCH  11  12
ENDBRANCH   5   6
BRANCH   1  15
ATOM     15  C4  UNL     1       1.455  -0.131   0.103  0.00  0.00    +0.000 C 
ATOM     16  O1  UNL     1       2.007   0.756   0.753  0.00  0.00    +0.000 OA
BRANCH  15  17
ATOM     17  C3  UNL     1       1.514  -1.599   0.502  0.00  0.00    +0.000 C 
BRANCH  17  19
ATOM     18  C1  UNL     1       1.324  -1.444   3.029  0.00  0.00    +0.000 C 
ATOM     19  C2  UNL     1       2.191  -1.853   1.846  0.00  0.00    +0.000 C 
ENDBRANCH  17  19
ENDBRANCH  15  17
ENDBRANCH   1  15
BRANCH   2  20
ATOM     20  C7  UNL     1       1.814   0.517  -3.426  0.00  0.00    +0.000 C 
ATOM     21  F1  UNL     1       2.522   1.408  -4.168  0.00  0.00    +0.000 F 
ENDBRANCH   2  20
TORSDOF 6
