REMARK  Name = ligantes_elite\Elite_061.pdb
REMARK  5 active torsions:
REMARK  status: ('A' for Active; 'I' for Inactive)
REMARK    1  A    between atoms: C1_1  and  O1_2
REMARK    2  A    between atoms: O1_2  and  C2_3
REMARK    3  A    between atoms: C2_3  and  C3_5
REMARK    4  A    between atoms: C4_6  and  C5_7
REMARK    5  A    between atoms: C8_10  and  C9_11
REMARK                            x       y       z     vdW  Elec       q    Type
REMARK                         _______ _______ _______ _____ _____    ______ ____
ROOT
ATOM      1  C3  UNL     1      -0.750  -0.643  -0.632  0.00  0.00    +0.000 C 
ATOM      2  C4  UNL     1      -1.879  -1.346   0.162  0.00  0.00    +0.000 C 
ATOM      3  C5  UNL     1      -2.700  -2.296  -0.700  0.00  0.00    +0.000 C 
ATOM      4  C6  UNL     1      -1.178  -2.072   1.315  0.00  0.00    +0.000 C 
ATOM      5  C7  UNL     1       0.056  -1.223   1.578  0.00  0.00    +0.000 C 
ATOM      6  C8  UNL     1       0.557  -0.910   0.159  0.00  0.00    +0.000 C 
ENDROOT
BRANCH   6   7
ATOM      7  C9  UNL     1       1.670   0.104   0.004  0.00  0.00    +0.000 C 
ATOM      8  C10 UNL     1       1.984   1.009   1.018  0.00  0.00    +0.000 C 
ATOM      9  N1  UNL     1       2.949   1.956   0.946  0.00  0.00    +0.000 NA
ATOM     10  C11 UNL     1       3.657   2.023  -0.196  0.00  0.00    +0.000 C 
ATOM     11  C12 UNL     1       3.446   1.181  -1.268  0.00  0.00    +0.000 C 
ATOM     12  C13 UNL     1       2.445   0.215  -1.162  0.00  0.00    +0.000 C 
ATOM     13 BR1  UNL     1       2.218  -0.931  -2.662  0.00  0.00    +0.000 Br
ENDBRANCH   6   7
BRANCH   1  14
ATOM     14  C2  UNL     1      -1.069   0.827  -0.838  0.00  0.00    +0.000 C 
ATOM     15  O2  UNL     1      -1.242   1.331  -1.941  0.00  0.00    +0.000 OA
BRANCH  14  17
ATOM     16  C1  UNL     1      -1.402   2.895   0.206  0.00  0.00    +0.000 C 
ATOM     17  O1  UNL     1      -1.148   1.496   0.344  0.00  0.00    +0.000 OA
ENDBRANCH  14  17
ENDBRANCH   1  14
TORSDOF 3
