REMARK  Name = ligantes_elite\Elite_062.pdb
REMARK  5 active torsions:
REMARK  status: ('A' for Active; 'I' for Inactive)
REMARK    1  A    between atoms: C1_1  and  C2_2
REMARK    2  A    between atoms: C2_2  and  C3_3
REMARK    3  A    between atoms: C3_3  and  C4_5
REMARK    4  A    between atoms: C5_6  and  O2_7
REMARK    5  A    between atoms: C8_10  and  C9_11
REMARK                            x       y       z     vdW  Elec       q    Type
REMARK                         _______ _______ _______ _____ _____    ______ ____
ROOT
ATOM      1  C4  UNL     1      -0.841  -0.807   0.032  0.00  0.00    +0.000 C 
ATOM      2  C5  UNL     1      -0.869  -2.338  -0.062  0.00  0.00    +0.000 C 
ATOM      3  C6  UNL     1       0.108  -2.695  -1.175  0.00  0.00    +0.000 C 
ATOM      4  C7  UNL     1       1.213  -1.662  -1.015  0.00  0.00    +0.000 C 
ATOM      5  C8  UNL     1       0.462  -0.361  -0.684  0.00  0.00    +0.000 C 
ENDROOT
BRANCH   5   6
ATOM      6  C9  UNL     1       1.322   0.600   0.113  0.00  0.00    +0.000 C 
ATOM      7  C10 UNL     1       1.677   0.279   1.427  0.00  0.00    +0.000 C 
ATOM      8  N1  UNL     1       2.430   1.051   2.243  0.00  0.00    +0.000 NA
ATOM      9  C11 UNL     1       2.879   2.212   1.735  0.00  0.00    +0.000 C 
ATOM     10  C12 UNL     1       2.611   2.633   0.448  0.00  0.00    +0.000 C 
ATOM     11  C13 UNL     1       1.827   1.816  -0.371  0.00  0.00    +0.000 C 
ATOM     12  I1  UNL     1       1.496   2.533  -2.319  0.00  0.00    +0.000 I 
ENDBRANCH   5   6
BRANCH   1  13
ATOM     13  C3  UNL     1      -2.064  -0.236  -0.670  0.00  0.00    +0.000 C 
ATOM     14  O1  UNL     1      -2.365  -0.576  -1.816  0.00  0.00    +0.000 OA
BRANCH  13  16
ATOM     15  C1  UNL     1      -2.209   2.110   0.202  0.00  0.00    +0.000 C 
ATOM     16  C2  UNL     1      -2.905   0.770   0.088  0.00  0.00    +0.000 C 
ENDBRANCH  13  16
ENDBRANCH   1  13
BRANCH   2  17
ATOM     17  O2  UNL     1      -0.401  -2.869   1.178  0.00  0.00    +0.000 OA
ATOM     18  H   UNL     1       0.485  -2.522   1.364  0.00  0.00    +0.000 HD
ENDBRANCH   2  17
TORSDOF 4
