REMARK  Name = ligantes_elite\Elite_034.pdb
REMARK  6 active torsions:
REMARK  status: ('A' for Active; 'I' for Inactive)
REMARK    1  A    between atoms: C1_1  and  C2_2
REMARK    2  A    between atoms: C2_2  and  C3_3
REMARK    3  A    between atoms: C3_3  and  C4_5
REMARK    4  A    between atoms: C5_6  and  C6_7
REMARK    5  A    between atoms: C9_10  and  C10_11
REMARK    6  A    between atoms: C14_16  and  C15_17
REMARK                            x       y       z     vdW  Elec       q    Type
REMARK                         _______ _______ _______ _____ _____    ______ ____
ROOT
ATOM      1  C4  UNL     1       0.919  -0.517  -0.377  0.00  0.00    +0.000 C 
ATOM      2  C5  UNL     1       1.435  -1.597  -1.341  0.00  0.00    +0.000 C 
ATOM      3  C6  UNL     1       2.936  -1.840  -1.328  0.00  0.00    +0.000 C 
ATOM      4  C7  UNL     1       0.888  -1.198  -2.718  0.00  0.00    +0.000 C 
ATOM      5  C8  UNL     1      -0.312  -0.279  -2.454  0.00  0.00    +0.000 C 
ATOM      6  C9  UNL     1      -0.499  -0.265  -0.925  0.00  0.00    +0.000 C 
ENDROOT
BRANCH   6   7
ATOM      7  C10 UNL     1      -1.235   0.894  -0.287  0.00  0.00    +0.000 C 
ATOM      8  C11 UNL     1      -1.186   2.179  -0.838  0.00  0.00    +0.000 C 
ATOM      9  N1  UNL     1      -1.770   3.274  -0.303  0.00  0.00    +0.000 NA
ATOM     10  C12 UNL     1      -2.432   3.098   0.850  0.00  0.00    +0.000 C 
ATOM     11  C13 UNL     1      -2.536   1.877   1.491  0.00  0.00    +0.000 C 
ATOM     12  C14 UNL     1      -1.946   0.732   0.929  0.00  0.00    +0.000 C 
BRANCH  12  13
ATOM     13  C15 UNL     1      -2.050  -0.598   1.657  0.00  0.00    +0.000 C 
ATOM     14  C16 UNL     1      -3.337  -1.013   2.339  0.00  0.00    +0.000 C 
ATOM     15  C17 UNL     1      -2.907  -1.705   1.085  0.00  0.00    +0.000 C 
ENDBRANCH  12  13
ENDBRANCH   6   7
BRANCH   1  16
ATOM     16  C3  UNL     1       1.766   0.758  -0.355  0.00  0.00    +0.000 C 
ATOM     17  O1  UNL     1       2.153   1.306  -1.388  0.00  0.00    +0.000 OA
BRANCH  16  19
ATOM     18  C1  UNL     1       3.276   0.593   1.626  0.00  0.00    +0.000 C 
ATOM     19  C2  UNL     1       2.112   1.336   1.002  0.00  0.00    +0.000 C 
ENDBRANCH  16  19
ENDBRANCH   1  16
TORSDOF 4
