REMARK  Name = ligantes_elite\Elite_086.pdb
REMARK  6 active torsions:
REMARK  status: ('A' for Active; 'I' for Inactive)
REMARK    1  A    between atoms: C1_1  and  O1_2
REMARK    2  A    between atoms: O1_2  and  C2_3
REMARK    3  A    between atoms: C2_3  and  C3_5
REMARK    4  A    between atoms: C4_6  and  O3_7
REMARK    5  A    between atoms: C7_10  and  C8_11
REMARK    6  A    between atoms: C12_16  and  C13_17
REMARK                            x       y       z     vdW  Elec       q    Type
REMARK                         _______ _______ _______ _____ _____    ______ ____
ROOT
ATOM      1  C3  UNL     1       1.198  -0.808   0.362  0.00  0.00    +0.000 C 
ATOM      2  C4  UNL     1       1.740  -1.933  -0.512  0.00  0.00    +0.000 C 
ATOM      3  C5  UNL     1       0.946  -1.833  -1.811  0.00  0.00    +0.000 C 
ATOM      4  C6  UNL     1      -0.345  -1.079  -1.469  0.00  0.00    +0.000 C 
ATOM      5  C7  UNL     1      -0.319  -0.810   0.049  0.00  0.00    +0.000 C 
ENDROOT
BRANCH   5   6
ATOM      6  C8  UNL     1      -1.178   0.333   0.574  0.00  0.00    +0.000 C 
ATOM      7  C9  UNL     1      -0.689   1.190   1.569  0.00  0.00    +0.000 C 
ATOM      8  N1  UNL     1      -1.358   2.230   2.118  0.00  0.00    +0.000 NA
ATOM      9  C10 UNL     1      -2.605   2.448   1.675  0.00  0.00    +0.000 C 
ATOM     10  C11 UNL     1      -3.221   1.644   0.738  0.00  0.00    +0.000 C 
ATOM     11  C12 UNL     1      -2.523   0.549   0.194  0.00  0.00    +0.000 C 
BRANCH  11  12
ATOM     12  C13 UNL     1      -3.285  -0.338  -0.760  0.00  0.00    +0.000 C 
ATOM     13  F1  UNL     1      -3.010  -0.065  -2.064  0.00  0.00    +0.000 F 
ATOM     14  F2  UNL     1      -4.641  -0.208  -0.644  0.00  0.00    +0.000 F 
ENDBRANCH  11  12
ENDBRANCH   5   6
BRANCH   1  15
ATOM     15  C2  UNL     1       1.939   0.463  -0.012  0.00  0.00    +0.000 C 
ATOM     16  O2  UNL     1       1.722   1.145  -1.002  0.00  0.00    +0.000 OA
BRANCH  15  18
ATOM     17  C1  UNL     1       3.652   1.910   0.663  0.00  0.00    +0.000 C 
ATOM     18  O1  UNL     1       2.906   0.717   0.915  0.00  0.00    +0.000 OA
ENDBRANCH  15  18
ENDBRANCH   1  15
BRANCH   2  19
ATOM     19  O3  UNL     1       1.462  -3.192   0.100  0.00  0.00    +0.000 OA
ATOM     20  H   UNL     1       0.506  -3.278   0.242  0.00  0.00    +0.000 HD
ENDBRANCH   2  19
TORSDOF 5
