REMARK  Name = ligantes_elite\Elite_111.pdb
REMARK  6 active torsions:
REMARK  status: ('A' for Active; 'I' for Inactive)
REMARK    1  A    between atoms: C1_1  and  O1_2
REMARK    2  A    between atoms: O1_2  and  C2_3
REMARK    3  A    between atoms: C2_3  and  C3_5
REMARK    4  A    between atoms: C4_6  and  C5_7
REMARK    5  A    between atoms: C8_10  and  C9_11
REMARK    6  A    between atoms: C13_16  and  C14_17
REMARK                            x       y       z     vdW  Elec       q    Type
REMARK                         _______ _______ _______ _____ _____    ______ ____
ROOT
ATOM      1  C3  UNL     1      -0.899   0.671  -0.611  0.00  0.00    +0.000 C 
ATOM      2  C4  UNL     1      -1.099   2.148  -0.243  0.00  0.00    +0.000 C 
ATOM      3  C5  UNL     1      -2.537   2.598  -0.038  0.00  0.00    +0.000 C 
ATOM      4  C6  UNL     1      -0.225   2.329   0.999  0.00  0.00    +0.000 C 
ATOM      5  C7  UNL     1       0.904   1.299   0.865  0.00  0.00    +0.000 C 
ATOM      6  C8  UNL     1       0.634   0.501  -0.432  0.00  0.00    +0.000 C 
ENDROOT
BRANCH   6   7
ATOM      7  C9  UNL     1       1.250  -0.888  -0.537  0.00  0.00    +0.000 C 
ATOM      8  C10 UNL     1       0.505  -1.967  -1.030  0.00  0.00    +0.000 C 
ATOM      9  N1  UNL     1       0.944  -3.241  -1.156  0.00  0.00    +0.000 NA
ATOM     10  C11 UNL     1       2.209  -3.484  -0.785  0.00  0.00    +0.000 C 
ATOM     11  C12 UNL     1       3.066  -2.498  -0.340  0.00  0.00    +0.000 C 
ATOM     12  C13 UNL     1       2.606  -1.170  -0.245  0.00  0.00    +0.000 C 
BRANCH  12  13
ATOM     13  C14 UNL     1       3.622  -0.123   0.144  0.00  0.00    +0.000 C 
ATOM     14  F1  UNL     1       3.516   1.027  -0.579  0.00  0.00    +0.000 F 
ATOM     15  F2  UNL     1       3.548   0.230   1.455  0.00  0.00    +0.000 F 
ENDBRANCH  12  13
ENDBRANCH   6   7
BRANCH   1  16
ATOM     16  C2  UNL     1      -1.736  -0.237   0.286  0.00  0.00    +0.000 C 
ATOM     17  O2  UNL     1      -1.481  -0.523   1.447  0.00  0.00    +0.000 OA
BRANCH  16  19
ATOM     18  C1  UNL     1      -3.683  -1.537   0.353  0.00  0.00    +0.000 C 
ATOM     19  O1  UNL     1      -2.831  -0.673  -0.402  0.00  0.00    +0.000 OA
ENDBRANCH  16  19
ENDBRANCH   1  16
TORSDOF 4
