REMARK  Name = ligantes_elite\Elite_067.pdb
REMARK  7 active torsions:
REMARK  status: ('A' for Active; 'I' for Inactive)
REMARK    1  A    between atoms: C1_1  and  C2_2
REMARK    2  A    between atoms: C2_2  and  C3_3
REMARK    3  A    between atoms: C3_3  and  C4_4
REMARK    4  A    between atoms: C4_4  and  C5_6
REMARK    5  A    between atoms: C6_7  and  O2_8
REMARK    6  A    between atoms: C9_11  and  C10_12
REMARK    7  A    between atoms: C14_17  and  C15_18
REMARK                            x       y       z     vdW  Elec       q    Type
REMARK                         _______ _______ _______ _____ _____    ______ ____
ROOT
ATOM      1  C5  UNL     1       0.105  -0.518  -0.737  0.00  0.00    +0.000 C 
ATOM      2  C6  UNL     1       0.588  -1.966  -0.783  0.00  0.00    +0.000 C 
ATOM      3  C7  UNL     1      -0.678  -2.745  -0.448  0.00  0.00    +0.000 C 
ATOM      4  C8  UNL     1      -1.371  -1.910   0.636  0.00  0.00    +0.000 C 
ATOM      5  C9  UNL     1      -0.809  -0.476   0.502  0.00  0.00    +0.000 C 
ENDROOT
BRANCH   5   6
ATOM      6  C10 UNL     1      -1.856   0.622   0.494  0.00  0.00    +0.000 C 
ATOM      7  C11 UNL     1      -1.781   1.611   1.477  0.00  0.00    +0.000 C 
ATOM      8  N1  UNL     1      -2.631   2.655   1.592  0.00  0.00    +0.000 NA
ATOM      9  C12 UNL     1      -3.622   2.743   0.688  0.00  0.00    +0.000 C 
ATOM     10  C13 UNL     1      -3.804   1.825  -0.326  0.00  0.00    +0.000 C 
ATOM     11  C14 UNL     1      -2.913   0.749  -0.425  0.00  0.00    +0.000 C 
BRANCH  11  12
ATOM     12  C15 UNL     1      -3.142  -0.193  -1.483  0.00  0.00    +0.000 C 
ATOM     13  N2  UNL     1      -3.329  -0.960  -2.334  0.00  0.00    +0.000 NA
ENDBRANCH  11  12
ENDBRANCH   5   6
BRANCH   1  14
ATOM     14  C4  UNL     1       1.260   0.471  -0.792  0.00  0.00    +0.000 C 
ATOM     15  O1  UNL     1       1.609   0.923  -1.887  0.00  0.00    +0.000 OA
BRANCH  14  16
ATOM     16  C3  UNL     1       1.955   0.892   0.494  0.00  0.00    +0.000 C 
BRANCH  16  18
ATOM     17  C1  UNL     1       4.361   0.417  -0.150  0.00  0.00    +0.000 C 
ATOM     18  C2  UNL     1       3.349   1.475   0.267  0.00  0.00    +0.000 C 
ENDBRANCH  16  18
ENDBRANCH  14  16
ENDBRANCH   1  14
BRANCH   2  19
ATOM     19  O2  UNL     1       1.555  -2.216   0.231  0.00  0.00    +0.000 OA
ATOM     20  H   UNL     1       1.179  -1.997   1.098  0.00  0.00    +0.000 HD
ENDBRANCH   2  19
TORSDOF 6
