REMARK  Name = ligantes_elite\Elite_041.pdb
REMARK  6 active torsions:
REMARK  status: ('A' for Active; 'I' for Inactive)
REMARK    1  A    between atoms: C1_1  and  C2_2
REMARK    2  A    between atoms: C2_2  and  C3_3
REMARK    3  A    between atoms: C3_3  and  C4_4
REMARK    4  A    between atoms: C4_4  and  C5_6
REMARK    5  A    between atoms: C9_11  and  C10_12
REMARK    6  A    between atoms: C14_17  and  C15_18
REMARK                            x       y       z     vdW  Elec       q    Type
REMARK                         _______ _______ _______ _____ _____    ______ ____
ROOT
ATOM      1  C5  UNL     1       0.925   0.165  -0.505  0.00  0.00    +0.000 C 
ATOM      2  C6  UNL     1       1.539   0.722  -1.781  0.00  0.00    +0.000 C 
ATOM      3  F1  UNL     1       1.522   2.081  -1.743  0.00  0.00    +0.000 F 
ATOM      4  C7  UNL     1       0.593   0.264  -2.873  0.00  0.00    +0.000 C 
ATOM      5  C8  UNL     1      -0.782   0.499  -2.261  0.00  0.00    +0.000 C 
ATOM      6  C9  UNL     1      -0.604   0.294  -0.740  0.00  0.00    +0.000 C 
ENDROOT
BRANCH   6   7
ATOM      7  C10 UNL     1      -1.386  -0.903  -0.218  0.00  0.00    +0.000 C 
ATOM      8  C11 UNL     1      -1.153  -2.181  -0.742  0.00  0.00    +0.000 C 
ATOM      9  N1  UNL     1      -1.754  -3.315  -0.326  0.00  0.00    +0.000 NA
ATOM     10  C12 UNL     1      -2.643  -3.181   0.672  0.00  0.00    +0.000 C 
ATOM     11  C13 UNL     1      -2.961  -1.967   1.256  0.00  0.00    +0.000 C 
ATOM     12  C14 UNL     1      -2.349  -0.783   0.808  0.00  0.00    +0.000 C 
BRANCH  12  13
ATOM     13  C15 UNL     1      -2.714   0.540   1.453  0.00  0.00    +0.000 C 
ATOM     14  C16 UNL     1      -4.153   0.879   1.779  0.00  0.00    +0.000 C 
ATOM     15  C17 UNL     1      -3.466   1.581   0.651  0.00  0.00    +0.000 C 
ENDBRANCH  12  13
ENDBRANCH   6   7
BRANCH   1  16
ATOM     16  C4  UNL     1       1.411   0.901   0.738  0.00  0.00    +0.000 C 
ATOM     17  O1  UNL     1       0.636   1.261   1.627  0.00  0.00    +0.000 OA
BRANCH  16  18
ATOM     18  C3  UNL     1       2.906   1.108   0.916  0.00  0.00    +0.000 C 
BRANCH  18  20
ATOM     19  C1  UNL     1       5.105   0.005   1.442  0.00  0.00    +0.000 C 
ATOM     20  C2  UNL     1       3.631  -0.213   1.143  0.00  0.00    +0.000 C 
ENDBRANCH  18  20
ENDBRANCH  16  18
ENDBRANCH   1  16
TORSDOF 5
