REMARK  Name = ligantes_elite\Elite_114.pdb
REMARK  4 active torsions:
REMARK  status: ('A' for Active; 'I' for Inactive)
REMARK    1  A    between atoms: C1_2  and  C2_3
REMARK    2  A    between atoms: C1_2  and  C5_6
REMARK    3  A    between atoms: C6_7  and  C7_8
REMARK    4  A    between atoms: C10_12  and  C11_13
REMARK                            x       y       z     vdW  Elec       q    Type
REMARK                         _______ _______ _______ _____ _____    ______ ____
ROOT
ATOM      1  C5  UNL     1       0.180  -0.769  -0.714  0.00  0.00    +0.000 C 
ATOM      2  C6  UNL     1       0.347  -2.295  -0.661  0.00  0.00    +0.000 C 
ATOM      3  C8  UNL     1      -0.355  -2.695   0.638  0.00  0.00    +0.000 C 
ATOM      4  C9  UNL     1      -1.449  -1.642   0.856  0.00  0.00    +0.000 C 
ATOM      5  C10 UNL     1      -1.301  -0.610  -0.285  0.00  0.00    +0.000 C 
ENDROOT
BRANCH   5   6
ATOM      6  C11 UNL     1      -1.815   0.788  -0.040  0.00  0.00    +0.000 C 
ATOM      7  C12 UNL     1      -1.378   1.868  -0.802  0.00  0.00    +0.000 C 
ATOM      8  N1  UNL     1      -1.812   3.143  -0.663  0.00  0.00    +0.000 NA
ATOM      9  C13 UNL     1      -2.747   3.372   0.280  0.00  0.00    +0.000 C 
ATOM     10  C14 UNL     1      -3.282   2.379   1.072  0.00  0.00    +0.000 C 
ATOM     11  C15 UNL     1      -2.812   1.085   0.889  0.00  0.00    +0.000 C 
ATOM     12  F2  UNL     1      -3.372   0.113   1.624  0.00  0.00    +0.000 F 
ENDBRANCH   5   6
BRANCH   1  14
ATOM     13  O1  UNL     1       0.971   0.116   1.415  0.00  0.00    +0.000 OA
ATOM     14  C1  UNL     1       1.142  -0.016   0.209  0.00  0.00    +0.000 C 
BRANCH  14  15
ATOM     15  C2  UNL     1       2.312   0.618  -0.471  0.00  0.00    +0.000 C 
ATOM     16  C3  UNL     1       3.420   1.255   0.333  0.00  0.00    +0.000 C 
ATOM     17  C4  UNL     1       2.462   2.121  -0.433  0.00  0.00    +0.000 C 
ENDBRANCH  14  15
ENDBRANCH   1  14
BRANCH   2  18
ATOM     18  C7  UNL     1       1.764  -2.829  -0.786  0.00  0.00    +0.000 C 
ATOM     19  F1  UNL     1       2.543  -2.349   0.212  0.00  0.00    +0.000 F 
ENDBRANCH   2  18
TORSDOF 4
