REMARK  Name = ligantes_elite\Elite_162.pdb
REMARK  6 active torsions:
REMARK  status: ('A' for Active; 'I' for Inactive)
REMARK    1  A    between atoms: C1_1  and  O1_2
REMARK    2  A    between atoms: O1_2  and  C2_3
REMARK    3  A    between atoms: C2_3  and  C3_5
REMARK    4  A    between atoms: C4_6  and  O3_7
REMARK    5  A    between atoms: C7_10  and  C8_11
REMARK    6  A    between atoms: C12_16  and  C13_17
REMARK                            x       y       z     vdW  Elec       q    Type
REMARK                         _______ _______ _______ _____ _____    ______ ____
ROOT
ATOM      1  C3  UNL     1       1.264   0.366  -0.239  0.00  0.00    +0.000 C 
ATOM      2  C4  UNL     1       1.820  -0.565  -1.326  0.00  0.00    +0.000 C 
ATOM      3  C5  UNL     1       1.509  -1.982  -0.853  0.00  0.00    +0.000 C 
ATOM      4  C6  UNL     1       0.184  -1.835  -0.117  0.00  0.00    +0.000 C 
ATOM      5  C7  UNL     1       0.331  -0.506   0.630  0.00  0.00    +0.000 C 
ENDROOT
BRANCH   5   6
ATOM      6  C8  UNL     1      -0.969   0.139   1.081  0.00  0.00    +0.000 C 
ATOM      7  C9  UNL     1      -1.166   0.232   2.470  0.00  0.00    +0.000 C 
ATOM      8  N1  UNL     1      -2.224   0.808   3.078  0.00  0.00    +0.000 NA
ATOM      9  C10 UNL     1      -3.143   1.347   2.267  0.00  0.00    +0.000 C 
ATOM     10  C11 UNL     1      -3.058   1.311   0.885  0.00  0.00    +0.000 C 
ATOM     11  C12 UNL     1      -1.975   0.677   0.241  0.00  0.00    +0.000 C 
BRANCH  11  12
ATOM     12  C13 UNL     1      -1.933   0.648  -1.281  0.00  0.00    +0.000 C 
ATOM     13  C14 UNL     1      -3.195   0.724  -2.122  0.00  0.00    +0.000 C 
ATOM     14  C15 UNL     1      -2.445  -0.562  -2.030  0.00  0.00    +0.000 C 
ENDBRANCH  11  12
ENDBRANCH   5   6
BRANCH   1  15
ATOM     15  C2  UNL     1       2.376   0.963   0.599  0.00  0.00    +0.000 C 
ATOM     16  O2  UNL     1       2.437   2.147   0.905  0.00  0.00    +0.000 OA
BRANCH  15  18
ATOM     17  C1  UNL     1       4.325   0.522   1.821  0.00  0.00    +0.000 C 
ATOM     18  O1  UNL     1       3.270   0.016   1.000  0.00  0.00    +0.000 OA
ENDBRANCH  15  18
ENDBRANCH   1  15
BRANCH   2  19
ATOM     19  O3  UNL     1       1.136  -0.313  -2.553  0.00  0.00    +0.000 OA
ATOM     20  H   UNL     1       0.183  -0.442  -2.424  0.00  0.00    +0.000 HD
ENDBRANCH   2  19
TORSDOF 5
