REMARK  Name = ligantes_elite\Elite_150.pdb
REMARK  5 active torsions:
REMARK  status: ('A' for Active; 'I' for Inactive)
REMARK    1  A    between atoms: C1_2  and  C2_3
REMARK    2  A    between atoms: C6_8  and  C7_9
REMARK    3  A    between atoms: C10_12  and  O1_13
REMARK    4  A    between atoms: C11_14  and  C12_15
REMARK    5  A    between atoms: C12_15  and  C13_17
REMARK                            x       y       z     vdW  Elec       q    Type
REMARK                         _______ _______ _______ _____ _____    ______ ____
ROOT
ATOM      1  C7  UNL     1       0.363  -0.844  -0.707  0.00  0.00    +0.000 C 
ATOM      2  C8  UNL     1       1.113  -2.168  -0.491  0.00  0.00    +0.000 C 
ATOM      3  C9  UNL     1       0.302  -2.865   0.590  0.00  0.00    +0.000 C 
ATOM      4  C10 UNL     1      -0.034  -1.728   1.546  0.00  0.00    +0.000 C 
ATOM      5  C11 UNL     1      -0.319  -0.513   0.646  0.00  0.00    +0.000 C 
ENDROOT
BRANCH   1  11
ATOM      6  C2  UNL     1       2.308   0.883  -0.715  0.00  0.00    +0.000 C 
ATOM      7  C3  UNL     1       2.986   1.910  -1.383  0.00  0.00    +0.000 C 
ATOM      8  C4  UNL     1       2.533   2.299  -2.628  0.00  0.00    +0.000 C 
ATOM      9  N2  UNL     1       1.472   1.739  -3.234  0.00  0.00    +0.000 NA
ATOM     10  C5  UNL     1       0.836   0.746  -2.574  0.00  0.00    +0.000 C 
ATOM     11  C6  UNL     1       1.193   0.269  -1.312  0.00  0.00    +0.000 C 
BRANCH   6  13
ATOM     12  N1  UNL     1       3.186   0.207   1.630  0.00  0.00    +0.000 NA
ATOM     13  C1  UNL     1       2.799   0.507   0.579  0.00  0.00    +0.000 C 
ENDBRANCH   6  13
ENDBRANCH   1  11
BRANCH   4  14
ATOM     14  O1  UNL     1      -1.083  -2.067   2.432  0.00  0.00    +0.000 OA
ATOM     15  H   UNL     1      -1.877  -2.292   1.922  0.00  0.00    +0.000 HD
ENDBRANCH   4  14
BRANCH   5  16
ATOM     16  C12 UNL     1      -1.803  -0.305   0.416  0.00  0.00    +0.000 C 
ATOM     17  O2  UNL     1      -2.588  -1.226   0.213  0.00  0.00    +0.000 OA
BRANCH  16  18
ATOM     18  C13 UNL     1      -2.268   1.106   0.376  0.00  0.00    +0.000 C 
ATOM     19  C14 UNL     1      -3.553   1.491   1.072  0.00  0.00    +0.000 C 
ATOM     20  C15 UNL     1      -2.240   1.953   1.627  0.00  0.00    +0.000 C 
ENDBRANCH  16  18
ENDBRANCH   5  16
TORSDOF 5
