REMARK  Name = ligantes_elite\Elite_187.pdb
REMARK  5 active torsions:
REMARK  status: ('A' for Active; 'I' for Inactive)
REMARK    1  A    between atoms: C1_1  and  O1_2
REMARK    2  A    between atoms: O1_2  and  C2_3
REMARK    3  A    between atoms: C2_3  and  C3_5
REMARK    4  A    between atoms: C4_6  and  O3_7
REMARK    5  A    between atoms: C7_10  and  C8_11
REMARK                            x       y       z     vdW  Elec       q    Type
REMARK                         _______ _______ _______ _____ _____    ______ ____
ROOT
ATOM      1  C3  UNL     1       0.842  -0.770   0.130  0.00  0.00    +0.000 C 
ATOM      2  C4  UNL     1       1.118  -2.257  -0.114  0.00  0.00    +0.000 C 
ATOM      3  C5  UNL     1      -0.054  -2.641  -1.016  0.00  0.00    +0.000 C 
ATOM      4  C6  UNL     1      -1.251  -1.951  -0.354  0.00  0.00    +0.000 C 
ATOM      5  C7  UNL     1      -0.687  -0.678   0.324  0.00  0.00    +0.000 C 
ENDROOT
BRANCH   5   6
ATOM      6  C8  UNL     1      -1.239   0.625  -0.228  0.00  0.00    +0.000 C 
ATOM      7  C9  UNL     1      -1.318   0.809  -1.612  0.00  0.00    +0.000 C 
ATOM      8  N1  UNL     1      -1.724   1.940  -2.228  0.00  0.00    +0.000 NA
ATOM      9  C10 UNL     1      -2.066   2.974  -1.435  0.00  0.00    +0.000 C 
ATOM     10  C11 UNL     1      -2.039   2.915  -0.056  0.00  0.00    +0.000 C 
ATOM     11  C12 UNL     1      -1.628   1.723   0.551  0.00  0.00    +0.000 C 
ATOM     12  I1  UNL     1      -1.654   1.714   2.650  0.00  0.00    +0.000 I 
ENDBRANCH   5   6
BRANCH   1  13
ATOM     13  C2  UNL     1       1.607  -0.217   1.306  0.00  0.00    +0.000 C 
ATOM     14  O2  UNL     1       1.880  -0.860   2.304  0.00  0.00    +0.000 OA
BRANCH  13  16
ATOM     15  C1  UNL     1       2.671   1.705   2.152  0.00  0.00    +0.000 C 
ATOM     16  O1  UNL     1       1.918   1.082   1.102  0.00  0.00    +0.000 OA
ENDBRANCH  13  16
ENDBRANCH   1  13
BRANCH   2  17
ATOM     17  O3  UNL     1       1.037  -3.091   1.044  0.00  0.00    +0.000 OA
ATOM     18  H   UNL     1       0.153  -3.015   1.436  0.00  0.00    +0.000 HD
ENDBRANCH   2  17
TORSDOF 4
