REMARK  Name = ligantes_elite\Elite_144.pdb
REMARK  6 active torsions:
REMARK  status: ('A' for Active; 'I' for Inactive)
REMARK    1  A    between atoms: C1_1  and  O1_2
REMARK    2  A    between atoms: O1_2  and  C2_3
REMARK    3  A    between atoms: C2_3  and  C3_5
REMARK    4  A    between atoms: C4_6  and  C5_7
REMARK    5  A    between atoms: C8_11  and  C9_12
REMARK    6  A    between atoms: C13_17  and  C14_18
REMARK                            x       y       z     vdW  Elec       q    Type
REMARK                         _______ _______ _______ _____ _____    ______ ____
ROOT
ATOM      1  C3  UNL     1      -1.541  -0.897  -0.394  0.00  0.00    +0.000 C 
ATOM      2  C4  UNL     1      -1.936  -0.598  -1.849  0.00  0.00    +0.000 C 
ATOM      3  C6  UNL     1      -1.186   0.688  -2.176  0.00  0.00    +0.000 C 
ATOM      4  C7  UNL     1       0.082   0.652  -1.316  0.00  0.00    +0.000 C 
ATOM      5  C8  UNL     1      -0.018  -0.596  -0.403  0.00  0.00    +0.000 C 
ENDROOT
BRANCH   5   6
ATOM      6  C9  UNL     1       0.742  -0.553   0.917  0.00  0.00    +0.000 C 
ATOM      7  C10 UNL     1       0.176  -1.092   2.081  0.00  0.00    +0.000 C 
ATOM      8  N1  UNL     1       0.739  -1.079   3.310  0.00  0.00    +0.000 NA
ATOM      9  C11 UNL     1       1.953  -0.521   3.405  0.00  0.00    +0.000 C 
ATOM     10  C12 UNL     1       2.638  -0.015   2.318  0.00  0.00    +0.000 C 
ATOM     11  C13 UNL     1       2.065  -0.056   1.032  0.00  0.00    +0.000 C 
BRANCH  11  12
ATOM     12  C14 UNL     1       2.903   0.421  -0.140  0.00  0.00    +0.000 C 
ATOM     13  C15 UNL     1       3.327  -0.558  -1.214  0.00  0.00    +0.000 C 
ATOM     14  C16 UNL     1       4.350  -0.012  -0.272  0.00  0.00    +0.000 C 
ENDBRANCH  11  12
ENDBRANCH   5   6
BRANCH   1  15
ATOM     15  C2  UNL     1      -2.381  -0.108   0.605  0.00  0.00    +0.000 C 
ATOM     16  O2  UNL     1      -3.322  -0.600   1.216  0.00  0.00    +0.000 OA
BRANCH  15  18
ATOM     17  C1  UNL     1      -2.725   1.945   1.673  0.00  0.00    +0.000 C 
ATOM     18  O1  UNL     1      -1.990   1.186   0.711  0.00  0.00    +0.000 OA
ENDBRANCH  15  18
ENDBRANCH   1  15
BRANCH   2  19
ATOM     19  C5  UNL     1      -3.426  -0.523  -2.130  0.00  0.00    +0.000 C 
ATOM     20  F1  UNL     1      -3.977  -1.733  -1.851  0.00  0.00    +0.000 F 
ENDBRANCH   2  19
TORSDOF 5
