REMARK  Name = ligantes_elite\Elite_010.pdb
REMARK  7 active torsions:
REMARK  status: ('A' for Active; 'I' for Inactive)
REMARK    1  A    between atoms: C1_1  and  C2_2
REMARK    2  A    between atoms: C2_2  and  C3_3
REMARK    3  A    between atoms: C2_2  and  C4_4
REMARK    4  A    between atoms: C4_4  and  C5_6
REMARK    5  A    between atoms: C6_7  and  C7_8
REMARK    6  A    between atoms: C10_11  and  C11_12
REMARK    7  A    between atoms: C15_17  and  C16_18
REMARK                            x       y       z     vdW  Elec       q    Type
REMARK                         _______ _______ _______ _____ _____    ______ ____
ROOT
ATOM      1  C5  UNL     1      -0.356  -0.496  -0.632  0.00  0.00    +0.000 C 
ATOM      2  C6  UNL     1      -0.762  -1.894  -1.122  0.00  0.00    +0.000 C 
ATOM      3  C7  UNL     1      -1.331  -2.817  -0.041  0.00  0.00    +0.000 C 
ATOM      4  C8  UNL     1       0.572  -2.429  -1.650  0.00  0.00    +0.000 C 
ATOM      5  C9  UNL     1       1.626  -1.938  -0.653  0.00  0.00    +0.000 C 
ATOM      6  C10 UNL     1       1.004  -0.721   0.070  0.00  0.00    +0.000 C 
ENDROOT
BRANCH   6   7
ATOM      7  C11 UNL     1       1.889   0.511   0.065  0.00  0.00    +0.000 C 
ATOM      8  C12 UNL     1       2.329   1.056  -1.146  0.00  0.00    +0.000 C 
ATOM      9  N1  UNL     1       3.093   2.164  -1.266  0.00  0.00    +0.000 NA
ATOM     10  C13 UNL     1       3.462   2.770  -0.122  0.00  0.00    +0.000 C 
ATOM     11  C14 UNL     1       3.096   2.318   1.133  0.00  0.00    +0.000 C 
ATOM     12  C15 UNL     1       2.298   1.167   1.246  0.00  0.00    +0.000 C 
BRANCH  12  13
ATOM     13  C16 UNL     1       1.917   0.685   2.627  0.00  0.00    +0.000 C 
ATOM     14  F1  UNL     1       2.501   1.411   3.625  0.00  0.00    +0.000 F 
ATOM     15  F2  UNL     1       2.304  -0.602   2.852  0.00  0.00    +0.000 F 
ENDBRANCH  12  13
ENDBRANCH   6   7
BRANCH   1  16
ATOM     16  C4  UNL     1      -1.396   0.182   0.252  0.00  0.00    +0.000 C 
ATOM     17  O1  UNL     1      -1.295   0.195   1.481  0.00  0.00    +0.000 OA
BRANCH  16  19
ATOM     18  C1  UNL     1      -2.563   2.347  -0.116  0.00  0.00    +0.000 C 
ATOM     19  C2  UNL     1      -2.570   0.857  -0.452  0.00  0.00    +0.000 C 
ATOM     20  C3  UNL     1      -3.884   0.200  -0.041  0.00  0.00    +0.000 C 
ENDBRANCH  16  19
ENDBRANCH   1  16
TORSDOF 4
