REMARK  Name = ligantes_elite\Elite_192.pdb
REMARK  7 active torsions:
REMARK  status: ('A' for Active; 'I' for Inactive)
REMARK    1  A    between atoms: C1_1  and  C2_2
REMARK    2  A    between atoms: C2_2  and  C3_3
REMARK    3  A    between atoms: C2_2  and  C4_4
REMARK    4  A    between atoms: C4_4  and  C5_6
REMARK    5  A    between atoms: C6_7  and  O2_8
REMARK    6  A    between atoms: C9_11  and  C10_12
REMARK    7  A    between atoms: C14_17  and  C15_18
REMARK                            x       y       z     vdW  Elec       q    Type
REMARK                         _______ _______ _______ _____ _____    ______ ____
ROOT
ATOM      1  C5  UNL     1      -0.756  -0.117  -0.655  0.00  0.00    +0.000 C 
ATOM      2  C6  UNL     1      -1.528  -0.639  -1.869  0.00  0.00    +0.000 C 
ATOM      3  C7  UNL     1      -0.629  -1.771  -2.355  0.00  0.00    +0.000 C 
ATOM      4  C8  UNL     1       0.789  -1.206  -2.216  0.00  0.00    +0.000 C 
ATOM      5  C9  UNL     1       0.701  -0.088  -1.154  0.00  0.00    +0.000 C 
ENDROOT
BRANCH   5   6
ATOM      6  C10 UNL     1       1.738  -0.079  -0.045  0.00  0.00    +0.000 C 
ATOM      7  C11 UNL     1       2.328   1.164   0.241  0.00  0.00    +0.000 C 
ATOM      8  N1  UNL     1       3.278   1.385   1.179  0.00  0.00    +0.000 NA
ATOM      9  C12 UNL     1       3.683   0.323   1.888  0.00  0.00    +0.000 C 
ATOM     10  C13 UNL     1       3.165  -0.948   1.709  0.00  0.00    +0.000 C 
ATOM     11  C14 UNL     1       2.162  -1.171   0.741  0.00  0.00    +0.000 C 
BRANCH  11  12
ATOM     12  C15 UNL     1       1.658  -2.590   0.601  0.00  0.00    +0.000 C 
ATOM     13  F1  UNL     1       0.306  -2.677   0.484  0.00  0.00    +0.000 F 
ATOM     14  F2  UNL     1       1.967  -3.375   1.676  0.00  0.00    +0.000 F 
ENDBRANCH  11  12
ENDBRANCH   5   6
BRANCH   1  15
ATOM     15  C4  UNL     1      -1.295   1.230  -0.213  0.00  0.00    +0.000 C 
ATOM     16  O1  UNL     1      -1.027   2.256  -0.840  0.00  0.00    +0.000 OA
BRANCH  15  18
ATOM     17  C1  UNL     1      -1.413   1.389   2.273  0.00  0.00    +0.000 C 
ATOM     18  C2  UNL     1      -2.228   1.241   0.992  0.00  0.00    +0.000 C 
ATOM     19  C3  UNL     1      -3.256   2.354   0.863  0.00  0.00    +0.000 C 
ENDBRANCH  15  18
ENDBRANCH   1  15
BRANCH   2  20
ATOM     20  O2  UNL     1      -1.616   0.304  -2.935  0.00  0.00    +0.000 OA
ATOM     21  H   UNL     1      -0.723   0.564  -3.211  0.00  0.00    +0.000 HD
ENDBRANCH   2  20
TORSDOF 5
