REMARK  Name = ligantes_elite\Elite_183.pdb
REMARK  6 active torsions:
REMARK  status: ('A' for Active; 'I' for Inactive)
REMARK    1  A    between atoms: C1_1  and  C2_2
REMARK    2  A    between atoms: C2_2  and  C3_3
REMARK    3  A    between atoms: C2_2  and  C4_4
REMARK    4  A    between atoms: C4_4  and  C5_6
REMARK    5  A    between atoms: C6_7  and  C7_8
REMARK    6  A    between atoms: C10_12  and  C11_13
REMARK                            x       y       z     vdW  Elec       q    Type
REMARK                         _______ _______ _______ _____ _____    ______ ____
ROOT
ATOM      1  C5  UNL     1       0.506  -0.676   0.369  0.00  0.00    +0.000 C 
ATOM      2  C6  UNL     1       0.881  -2.165   0.514  0.00  0.00    +0.000 C 
ATOM      3  C8  UNL     1      -0.462  -2.888   0.463  0.00  0.00    +0.000 C 
ATOM      4  C9  UNL     1      -1.430  -1.980   1.210  0.00  0.00    +0.000 C 
ATOM      5  C10 UNL     1      -0.805  -0.573   1.188  0.00  0.00    +0.000 C 
ENDROOT
BRANCH   5   6
ATOM      6  C11 UNL     1      -1.753   0.548   0.813  0.00  0.00    +0.000 C 
ATOM      7  C12 UNL     1      -1.973   1.533   1.786  0.00  0.00    +0.000 C 
ATOM      8  N1  UNL     1      -2.773   2.614   1.645  0.00  0.00    +0.000 NA
ATOM      9  C13 UNL     1      -3.414   2.743   0.473  0.00  0.00    +0.000 C 
ATOM     10  C14 UNL     1      -3.286   1.840  -0.563  0.00  0.00    +0.000 C 
ATOM     11  C15 UNL     1      -2.447   0.731  -0.392  0.00  0.00    +0.000 C 
ATOM     12  I1  UNL     1      -2.350  -0.548  -2.057  0.00  0.00    +0.000 I 
ENDBRANCH   5   6
BRANCH   1  13
ATOM     13  C4  UNL     1       1.581   0.239   0.961  0.00  0.00    +0.000 C 
ATOM     14  O1  UNL     1       1.960   0.088   2.127  0.00  0.00    +0.000 OA
BRANCH  13  16
ATOM     15  C1  UNL     1       2.912   0.867  -1.103  0.00  0.00    +0.000 C 
ATOM     16  C2  UNL     1       2.153   1.377   0.114  0.00  0.00    +0.000 C 
ATOM     17  C3  UNL     1       1.081   2.384  -0.282  0.00  0.00    +0.000 C 
ENDBRANCH  13  16
ENDBRANCH   1  13
BRANCH   2  18
ATOM     18  C7  UNL     1       1.829  -2.666  -0.563  0.00  0.00    +0.000 C 
ATOM     19  F1  UNL     1       3.021  -2.030  -0.437  0.00  0.00    +0.000 F 
ENDBRANCH   2  18
TORSDOF 4
