REMARK  Name = ligantes_elite\Elite_072.pdb
REMARK  5 active torsions:
REMARK  status: ('A' for Active; 'I' for Inactive)
REMARK    1  A    between atoms: C1_1  and  C2_2
REMARK    2  A    between atoms: C5_5  and  C6_6
REMARK    3  A    between atoms: C10_11  and  N2_12
REMARK    4  A    between atoms: C11_13  and  C12_14
REMARK    5  A    between atoms: C12_14  and  C13_16
REMARK                            x       y       z     vdW  Elec       q    Type
REMARK                         _______ _______ _______ _____ _____    ______ ____
ROOT
ATOM      1  C1  UNL     1      -2.424  -1.953  -0.503  0.00  0.00    +0.000 C 
ATOM      2  C2  UNL     1      -1.201  -1.743   0.395  0.00  0.00    +0.000 C 
ATOM      3  C3  UNL     1       0.002  -2.538  -0.117  0.00  0.00    +0.000 C 
ATOM      4  C4  UNL     1       0.648  -1.653  -1.182  0.00  0.00    +0.000 C 
ATOM      5  C5  UNL     1       0.208  -0.209  -0.864  0.00  0.00    +0.000 C 
ATOM      6  C11 UNL     1      -0.658  -0.304   0.411  0.00  0.00    +0.000 C 
ENDROOT
BRANCH   5   7
ATOM      7  C6  UNL     1       1.321   0.815  -0.767  0.00  0.00    +0.000 C 
ATOM      8  C7  UNL     1       1.193   1.980  -1.536  0.00  0.00    +0.000 C 
ATOM      9  N1  UNL     1       2.100   2.980  -1.594  0.00  0.00    +0.000 NA
ATOM     10  C8  UNL     1       3.214   2.814  -0.862  0.00  0.00    +0.000 C 
ATOM     11  C9  UNL     1       3.440   1.714  -0.054  0.00  0.00    +0.000 C 
ATOM     12  C10 UNL     1       2.460   0.720   0.048  0.00  0.00    +0.000 C 
BRANCH  12  13
ATOM     13  N2  UNL     1       2.764  -0.420   0.806  0.00  0.00    +0.000 N 
ATOM     14  H   UNL     1       2.099  -1.140   0.900  0.00  0.00    +0.000 HD
ATOM     15  H   UNL     1       3.642  -0.500   1.244  0.00  0.00    +0.000 HD
ENDBRANCH  12  13
ENDBRANCH   5   7
BRANCH   6  16
ATOM     16  C12 UNL     1      -1.741   0.755   0.474  0.00  0.00    +0.000 C 
ATOM     17  O1  UNL     1      -2.087   1.467  -0.464  0.00  0.00    +0.000 OA
BRANCH  16  18
ATOM     18  C13 UNL     1      -2.451   0.921   1.823  0.00  0.00    +0.000 C 
ATOM     19  N3  UNL     1      -3.438   1.867   1.828  0.00  0.00    +0.000 N 
ATOM     20  O2  UNL     1      -2.141   0.255   2.796  0.00  0.00    +0.000 OA
ATOM     21  H   UNL     1      -3.640   2.372   1.007  0.00  0.00    +0.000 HD
ATOM     22  H   UNL     1      -3.947   2.043   2.652  0.00  0.00    +0.000 HD
ENDBRANCH  16  18
ENDBRANCH   6  16
TORSDOF 4
