REMARK  Name = ligantes_elite\Elite_090.pdb
REMARK  5 active torsions:
REMARK  status: ('A' for Active; 'I' for Inactive)
REMARK    1  A    between atoms: C1_1  and  C2_2
REMARK    2  A    between atoms: C5_5  and  C6_6
REMARK    3  A    between atoms: C10_11  and  C11_12
REMARK    4  A    between atoms: C12_14  and  C13_15
REMARK    5  A    between atoms: C13_15  and  C14_17
REMARK                            x       y       z     vdW  Elec       q    Type
REMARK                         _______ _______ _______ _____ _____    ______ ____
ROOT
ATOM      1  C1  UNL     1      -3.048  -1.554  -0.909  0.00  0.00    +0.000 C 
ATOM      2  C2  UNL     1      -1.564  -1.751  -0.644  0.00  0.00    +0.000 C 
ATOM      3  C3  UNL     1      -1.258  -2.435   0.694  0.00  0.00    +0.000 C 
ATOM      4  C4  UNL     1       0.079  -1.857   1.174  0.00  0.00    +0.000 C 
ATOM      5  C5  UNL     1       0.594  -0.978   0.017  0.00  0.00    +0.000 C 
ATOM      6  C12 UNL     1      -0.701  -0.477  -0.654  0.00  0.00    +0.000 C 
ENDROOT
BRANCH   5   7
ATOM      7  C6  UNL     1       1.620   0.094   0.321  0.00  0.00    +0.000 C 
ATOM      8  C7  UNL     1       1.756   0.663   1.584  0.00  0.00    +0.000 C 
ATOM      9  N1  UNL     1       2.628   1.650   1.894  0.00  0.00    +0.000 NA
ATOM     10  C8  UNL     1       3.420   2.110   0.908  0.00  0.00    +0.000 C 
ATOM     11  C9  UNL     1       3.380   1.626  -0.383  0.00  0.00    +0.000 C 
ATOM     12  C10 UNL     1       2.470   0.608  -0.681  0.00  0.00    +0.000 C 
BRANCH  12  13
ATOM     13  C11 UNL     1       2.439   0.109  -2.028  0.00  0.00    +0.000 C 
ATOM     14  N2  UNL     1       2.417  -0.319  -3.107  0.00  0.00    +0.000 NA
ENDBRANCH  12  13
ENDBRANCH   5   7
BRANCH   6  15
ATOM     15  C13 UNL     1      -1.311   0.695   0.106  0.00  0.00    +0.000 C 
ATOM     16  O1  UNL     1      -1.930   0.600   1.162  0.00  0.00    +0.000 OA
BRANCH  15  17
ATOM     17  C14 UNL     1      -1.064   2.095  -0.473  0.00  0.00    +0.000 C 
ATOM     18  N3  UNL     1      -1.699   3.101   0.200  0.00  0.00    +0.000 N 
ATOM     19  O2  UNL     1      -0.347   2.272  -1.442  0.00  0.00    +0.000 OA
ATOM     20  H   UNL     1      -2.266   2.892   0.977  0.00  0.00    +0.000 HD
ATOM     21  H   UNL     1      -1.589   4.035  -0.092  0.00  0.00    +0.000 HD
ENDBRANCH  15  17
ENDBRANCH   6  15
TORSDOF 4
