REMARK  Name = ligantes_elite\Elite_024.pdb
REMARK  7 active torsions:
REMARK  status: ('A' for Active; 'I' for Inactive)
REMARK    1  A    between atoms: C1_1  and  C2_2
REMARK    2  A    between atoms: C2_2  and  C3_3
REMARK    3  A    between atoms: C2_2  and  C4_4
REMARK    4  A    between atoms: C4_4  and  C5_6
REMARK    5  A    between atoms: C6_7  and  C7_8
REMARK    6  A    between atoms: C10_12  and  C11_13
REMARK    7  A    between atoms: C15_18  and  N2_19
REMARK                            x       y       z     vdW  Elec       q    Type
REMARK                         _______ _______ _______ _____ _____    ______ ____
ROOT
ATOM      1  C5  UNL     1      -0.434   0.804  -0.274  0.00  0.00    +0.000 C 
ATOM      2  C6  UNL     1      -0.723   2.317  -0.213  0.00  0.00    +0.000 C 
ATOM      3  C8  UNL     1       0.522   2.952   0.428  0.00  0.00    +0.000 C 
ATOM      4  C9  UNL     1       1.652   1.929   0.282  0.00  0.00    +0.000 C 
ATOM      5  C10 UNL     1       1.076   0.807  -0.600  0.00  0.00    +0.000 C 
ENDROOT
BRANCH   5   6
ATOM      6  C11 UNL     1       1.753  -0.543  -0.588  0.00  0.00    +0.000 C 
ATOM      7  C12 UNL     1       2.421  -1.017   0.544  0.00  0.00    +0.000 C 
ATOM      8  N1  UNL     1       3.008  -2.232   0.647  0.00  0.00    +0.000 NA
ATOM      9  C13 UNL     1       2.905  -3.043  -0.419  0.00  0.00    +0.000 C 
ATOM     10  C14 UNL     1       2.258  -2.687  -1.587  0.00  0.00    +0.000 C 
ATOM     11  C15 UNL     1       1.714  -1.404  -1.703  0.00  0.00    +0.000 C 
BRANCH  11  12
ATOM     12  N2  UNL     1       0.951  -1.111  -2.849  0.00  0.00    +0.000 N 
ATOM     13  H   UNL     1       0.554  -0.217  -2.961  0.00  0.00    +0.000 HD
ATOM     14  H   UNL     1       0.814  -1.800  -3.539  0.00  0.00    +0.000 HD
ENDBRANCH  11  12
ENDBRANCH   5   6
BRANCH   1  15
ATOM     15  C4  UNL     1      -0.774   0.079   1.034  0.00  0.00    +0.000 C 
ATOM     16  O1  UNL     1      -0.300   0.457   2.108  0.00  0.00    +0.000 OA
BRANCH  15  18
ATOM     17  C1  UNL     1      -1.301  -2.241   0.135  0.00  0.00    +0.000 C 
ATOM     18  C2  UNL     1      -1.765  -1.087   1.011  0.00  0.00    +0.000 C 
ATOM     19  C3  UNL     1      -3.162  -0.620   0.623  0.00  0.00    +0.000 C 
ENDBRANCH  15  18
ENDBRANCH   1  15
BRANCH   2  20
ATOM     20  C7  UNL     1      -2.011   2.740   0.470  0.00  0.00    +0.000 C 
ATOM     21  F1  UNL     1      -2.160   4.085   0.314  0.00  0.00    +0.000 F 
ENDBRANCH   2  20
TORSDOF 5
