REMARK  Name = ligantes_elite\Elite_085.pdb
REMARK  5 active torsions:
REMARK  status: ('A' for Active; 'I' for Inactive)
REMARK    1  A    between atoms: C1_2  and  C2_3
REMARK    2  A    between atoms: C6_8  and  C7_9
REMARK    3  A    between atoms: C10_12  and  C11_13
REMARK    4  A    between atoms: C12_15  and  C13_16
REMARK    5  A    between atoms: C13_16  and  C14_18
REMARK                            x       y       z     vdW  Elec       q    Type
REMARK                         _______ _______ _______ _____ _____    ______ ____
ROOT
ATOM      1  C7  UNL     1       0.356   0.852   0.101  0.00  0.00    +0.000 C 
ATOM      2  C8  UNL     1       1.010   2.085  -0.561  0.00  0.00    +0.000 C 
ATOM      3  C9  UNL     1       0.465   2.125  -1.982  0.00  0.00    +0.000 C 
ATOM      4  C10 UNL     1      -0.946   1.542  -1.859  0.00  0.00    +0.000 C 
ATOM      5  C12 UNL     1      -0.704   0.341  -0.916  0.00  0.00    +0.000 C 
ENDROOT
BRANCH   1  11
ATOM      6  C2  UNL     1       1.709  -0.484   1.837  0.00  0.00    +0.000 C 
ATOM      7  C3  UNL     1       2.693  -1.433   2.133  0.00  0.00    +0.000 C 
ATOM      8  C4  UNL     1       3.356  -2.041   1.087  0.00  0.00    +0.000 C 
ATOM      9  N2  UNL     1       3.107  -1.763  -0.206  0.00  0.00    +0.000 NA
ATOM     10  C5  UNL     1       2.157  -0.839  -0.470  0.00  0.00    +0.000 C 
ATOM     11  C6  UNL     1       1.407  -0.172   0.499  0.00  0.00    +0.000 C 
BRANCH   6  13
ATOM     12  N1  UNL     1       0.464   0.640   3.817  0.00  0.00    +0.000 NA
ATOM     13  C1  UNL     1       1.032   0.141   2.936  0.00  0.00    +0.000 C 
ENDBRANCH   6  13
ENDBRANCH   1  11
BRANCH   4  14
ATOM     14  C11 UNL     1      -1.932   2.604  -1.359  0.00  0.00    +0.000 C 
ATOM     15  F1  UNL     1      -1.840   3.697  -2.169  0.00  0.00    +0.000 F 
ENDBRANCH   4  14
BRANCH   5  16
ATOM     16  C13 UNL     1      -1.956  -0.237  -0.268  0.00  0.00    +0.000 C 
ATOM     17  O1  UNL     1      -3.094   0.074  -0.592  0.00  0.00    +0.000 OA
BRANCH  16  18
ATOM     18  C14 UNL     1      -1.762  -1.280   0.777  0.00  0.00    +0.000 C 
ATOM     19  C15 UNL     1      -1.058  -2.581   0.469  0.00  0.00    +0.000 C 
ATOM     20  C16 UNL     1      -2.541  -2.573   0.678  0.00  0.00    +0.000 C 
ENDBRANCH  16  18
ENDBRANCH   5  16
TORSDOF 5
