REMARK  Name = ligantes_elite\Elite_060.pdb
REMARK  5 active torsions:
REMARK  status: ('A' for Active; 'I' for Inactive)
REMARK    1  A    between atoms: C1_1  and  C2_2
REMARK    2  A    between atoms: C5_5  and  C6_6
REMARK    3  A    between atoms: C10_11  and  C11_12
REMARK    4  A    between atoms: C12_14  and  C13_15
REMARK    5  A    between atoms: C13_15  and  C14_17
REMARK                            x       y       z     vdW  Elec       q    Type
REMARK                         _______ _______ _______ _____ _____    ______ ____
ROOT
ATOM      1  C1  UNL     1       1.706  -2.492   1.713  0.00  0.00    +0.000 C 
ATOM      2  C2  UNL     1       1.396  -1.987   0.308  0.00  0.00    +0.000 C 
ATOM      3  C3  UNL     1       0.513  -2.974  -0.470  0.00  0.00    +0.000 C 
ATOM      4  C4  UNL     1      -0.405  -2.094  -1.308  0.00  0.00    +0.000 C 
ATOM      5  C5  UNL     1      -0.735  -0.949  -0.340  0.00  0.00    +0.000 C 
ATOM      6  C12 UNL     1       0.625  -0.642   0.323  0.00  0.00    +0.000 C 
ENDROOT
BRANCH   5   7
ATOM      7  C6  UNL     1      -1.506   0.230  -0.893  0.00  0.00    +0.000 C 
ATOM      8  C7  UNL     1      -1.321   0.667  -2.208  0.00  0.00    +0.000 C 
ATOM      9  N1  UNL     1      -1.969   1.710  -2.776  0.00  0.00    +0.000 NA
ATOM     10  C8  UNL     1      -2.847   2.373  -2.005  0.00  0.00    +0.000 C 
ATOM     11  C9  UNL     1      -3.106   2.042  -0.688  0.00  0.00    +0.000 C 
ATOM     12  C10 UNL     1      -2.427   0.960  -0.109  0.00  0.00    +0.000 C 
BRANCH  12  13
ATOM     13  C11 UNL     1      -2.738   0.603   1.322  0.00  0.00    +0.000 C 
ATOM     14  F1  UNL     1      -1.622   0.493   2.095  0.00  0.00    +0.000 F 
ENDBRANCH  12  13
ENDBRANCH   5   7
BRANCH   6  15
ATOM     15  C13 UNL     1       1.418   0.418  -0.429  0.00  0.00    +0.000 C 
ATOM     16  O1  UNL     1       1.902   0.247  -1.542  0.00  0.00    +0.000 OA
BRANCH  15  17
ATOM     17  C14 UNL     1       1.549   1.736   0.250  0.00  0.00    +0.000 C 
ATOM     18  C15 UNL     1       2.881   2.450   0.251  0.00  0.00    +0.000 C 
ATOM     19  C16 UNL     1       2.349   1.864   1.525  0.00  0.00    +0.000 C 
ENDBRANCH  15  17
ENDBRANCH   6  15
TORSDOF 4
