REMARK  Name = ligantes_elite\Elite_177.pdb
REMARK  5 active torsions:
REMARK  status: ('A' for Active; 'I' for Inactive)
REMARK    1  A    between atoms: C1_1  and  O1_2
REMARK    2  A    between atoms: O1_2  and  C2_3
REMARK    3  A    between atoms: C2_3  and  C3_5
REMARK    4  A    between atoms: C4_6  and  O3_7
REMARK    5  A    between atoms: C7_10  and  C8_11
REMARK                            x       y       z     vdW  Elec       q    Type
REMARK                         _______ _______ _______ _____ _____    ______ ____
ROOT
ATOM      1  C3  UNL     1      -0.939  -0.422   0.398  0.00  0.00    +0.000 C 
ATOM      2  C4  UNL     1      -1.406  -1.831   0.803  0.00  0.00    +0.000 C 
ATOM      3  C5  UNL     1      -0.486  -2.805   0.071  0.00  0.00    +0.000 C 
ATOM      4  C6  UNL     1       0.821  -2.037  -0.060  0.00  0.00    +0.000 C 
ATOM      5  C7  UNL     1       0.351  -0.624  -0.424  0.00  0.00    +0.000 C 
ENDROOT
BRANCH   5   6
ATOM      6  C8  UNL     1       1.400   0.438  -0.228  0.00  0.00    +0.000 C 
ATOM      7  C9  UNL     1       1.851   1.198  -1.301  0.00  0.00    +0.000 C 
ATOM      8  N1  UNL     1       2.786   2.172  -1.209  0.00  0.00    +0.000 NA
ATOM      9  C10 UNL     1       3.306   2.413   0.012  0.00  0.00    +0.000 C 
ATOM     10  C11 UNL     1       2.934   1.723   1.146  0.00  0.00    +0.000 C 
ATOM     11  C12 UNL     1       1.973   0.732   1.007  0.00  0.00    +0.000 C 
ATOM     12  F1  UNL     1       1.599   0.054   2.100  0.00  0.00    +0.000 F 
ENDBRANCH   5   6
BRANCH   1  13
ATOM     13  C2  UNL     1      -1.978   0.252  -0.467  0.00  0.00    +0.000 C 
ATOM     14  O2  UNL     1      -2.713  -0.328  -1.255  0.00  0.00    +0.000 OA
BRANCH  13  16
ATOM     15  C1  UNL     1      -2.866   2.330  -1.089  0.00  0.00    +0.000 C 
ATOM     16  O1  UNL     1      -1.937   1.601  -0.285  0.00  0.00    +0.000 OA
ENDBRANCH  13  16
ENDBRANCH   1  13
BRANCH   2  17
ATOM     17  O3  UNL     1      -1.235  -1.985   2.212  0.00  0.00    +0.000 OA
ATOM     18  H   UNL     1      -0.305  -1.832   2.443  0.00  0.00    +0.000 HD
ENDBRANCH   2  17
TORSDOF 4
