REMARK  Name = ligantes_elite\Elite_074.pdb
REMARK  4 active torsions:
REMARK  status: ('A' for Active; 'I' for Inactive)
REMARK    1  A    between atoms: C1_1  and  C2_2
REMARK    2  A    between atoms: C5_5  and  C6_6
REMARK    3  A    between atoms: C11_13  and  C12_14
REMARK    4  A    between atoms: C12_14  and  C13_16
REMARK                            x       y       z     vdW  Elec       q    Type
REMARK                         _______ _______ _______ _____ _____    ______ ____
ROOT
ATOM      1  C1  UNL     1      -2.337   2.119  -0.996  0.00  0.00    +0.000 C 
ATOM      2  C2  UNL     1      -0.890   1.656  -0.906  0.00  0.00    +0.000 C 
ATOM      3  C3  UNL     1      -0.385   1.006  -2.194  0.00  0.00    +0.000 C 
ATOM      4  C4  UNL     1       0.880   0.278  -1.759  0.00  0.00    +0.000 C 
ATOM      5  C5  UNL     1       0.522  -0.296  -0.380  0.00  0.00    +0.000 C 
ATOM      6  C11 UNL     1      -0.538   0.659   0.222  0.00  0.00    +0.000 C 
ENDROOT
BRANCH   5   7
ATOM      7  C6  UNL     1       1.700  -0.648   0.508  0.00  0.00    +0.000 C 
ATOM      8  C7  UNL     1       1.860  -2.004   0.826  0.00  0.00    +0.000 C 
ATOM      9  N1  UNL     1       2.834  -2.524   1.606  0.00  0.00    +0.000 NA
ATOM     10  C8  UNL     1       3.727  -1.659   2.112  0.00  0.00    +0.000 C 
ATOM     11  C9  UNL     1       3.685  -0.300   1.871  0.00  0.00    +0.000 C 
ATOM     12  C10 UNL     1       2.663   0.211   1.060  0.00  0.00    +0.000 C 
ATOM     13  I1  UNL     1       2.744   2.297   0.786  0.00  0.00    +0.000 I 
ENDBRANCH   5   7
BRANCH   6  14
ATOM     14  C12 UNL     1      -1.714  -0.058   0.872  0.00  0.00    +0.000 C 
ATOM     15  O1  UNL     1      -2.087   0.190   2.019  0.00  0.00    +0.000 OA
BRANCH  14  16
ATOM     16  C13 UNL     1      -2.499  -1.122   0.085  0.00  0.00    +0.000 C 
ATOM     17  N2  UNL     1      -3.425  -1.793   0.835  0.00  0.00    +0.000 N 
ATOM     18  O2  UNL     1      -2.312  -1.340  -1.098  0.00  0.00    +0.000 OA
ATOM     19  H   UNL     1      -3.536  -1.577   1.789  0.00  0.00    +0.000 HD
ATOM     20  H   UNL     1      -3.981  -2.492   0.421  0.00  0.00    +0.000 HD
ENDBRANCH  14  16
ENDBRANCH   6  14
TORSDOF 3
