REMARK  Name = ligantes_elite\Elite_027.pdb
REMARK  6 active torsions:
REMARK  status: ('A' for Active; 'I' for Inactive)
REMARK    1  A    between atoms: C1_1  and  O1_2
REMARK    2  A    between atoms: O1_2  and  C2_3
REMARK    3  A    between atoms: C2_3  and  C3_5
REMARK    4  A    between atoms: C4_6  and  C5_7
REMARK    5  A    between atoms: C8_10  and  C9_11
REMARK    6  A    between atoms: C13_16  and  C14_17
REMARK                            x       y       z     vdW  Elec       q    Type
REMARK                         _______ _______ _______ _____ _____    ______ ____
ROOT
ATOM      1  C3  UNL     1      -1.084  -0.383   0.050  0.00  0.00    +0.000 C 
ATOM      2  C4  UNL     1      -1.977  -1.572  -0.390  0.00  0.00    +0.000 C 
ATOM      3  C5  UNL     1      -3.027  -1.929   0.656  0.00  0.00    +0.000 C 
ATOM      4  C6  UNL     1      -1.018  -2.741  -0.657  0.00  0.00    +0.000 C 
ATOM      5  C7  UNL     1       0.324  -2.078  -0.931  0.00  0.00    +0.000 C 
ATOM      6  C8  UNL     1       0.352  -0.949   0.108  0.00  0.00    +0.000 C 
ENDROOT
BRANCH   6   7
ATOM      7  C9  UNL     1       1.476   0.062   0.024  0.00  0.00    +0.000 C 
ATOM      8  C10 UNL     1       2.102   0.359  -1.190  0.00  0.00    +0.000 C 
ATOM      9  N1  UNL     1       3.101   1.257  -1.348  0.00  0.00    +0.000 NA
ATOM     10  C11 UNL     1       3.510   1.910  -0.246  0.00  0.00    +0.000 C 
ATOM     11  C12 UNL     1       2.961   1.708   1.006  0.00  0.00    +0.000 C 
ATOM     12  C13 UNL     1       1.926   0.775   1.158  0.00  0.00    +0.000 C 
BRANCH  12  13
ATOM     13  C14 UNL     1       1.343   0.568   2.534  0.00  0.00    +0.000 C 
ATOM     14  F1  UNL     1       1.887   1.382   3.484  0.00  0.00    +0.000 F 
ENDBRANCH  12  13
ENDBRANCH   6   7
BRANCH   1  15
ATOM     15  C2  UNL     1      -1.203   0.764  -0.941  0.00  0.00    +0.000 C 
ATOM     16  O2  UNL     1      -1.187   0.639  -2.158  0.00  0.00    +0.000 OA
BRANCH  15  18
ATOM     17  C1  UNL     1      -1.321   3.092  -1.126  0.00  0.00    +0.000 C 
ATOM     18  O1  UNL     1      -1.296   1.947  -0.273  0.00  0.00    +0.000 OA
ENDBRANCH  15  18
ENDBRANCH   1  15
TORSDOF 4
