REMARK  Name = ligantes_elite\Elite_118.pdb
REMARK  6 active torsions:
REMARK  status: ('A' for Active; 'I' for Inactive)
REMARK    1  A    between atoms: C1_1  and  C2_2
REMARK    2  A    between atoms: C2_2  and  C3_3
REMARK    3  A    between atoms: C2_2  and  C4_4
REMARK    4  A    between atoms: C4_4  and  C5_6
REMARK    5  A    between atoms: C6_7  and  O2_8
REMARK    6  A    between atoms: C9_11  and  C10_12
REMARK                            x       y       z     vdW  Elec       q    Type
REMARK                         _______ _______ _______ _____ _____    ______ ____
ROOT
ATOM      1  C5  UNL     1      -0.543   0.842  -0.231  0.00  0.00    +0.000 C 
ATOM      2  C6  UNL     1      -0.679   2.286  -0.726  0.00  0.00    +0.000 C 
ATOM      3  C7  UNL     1       0.471   2.483  -1.705  0.00  0.00    +0.000 C 
ATOM      4  C8  UNL     1       1.607   1.700  -1.064  0.00  0.00    +0.000 C 
ATOM      5  C9  UNL     1       0.925   0.439  -0.508  0.00  0.00    +0.000 C 
ENDROOT
BRANCH   5   6
ATOM      6  C10 UNL     1       1.631  -0.128   0.697  0.00  0.00    +0.000 C 
ATOM      7  C11 UNL     1       1.789   0.584   1.880  0.00  0.00    +0.000 C 
ATOM      8  N1  UNL     1       2.409   0.100   2.982  0.00  0.00    +0.000 NA
ATOM      9  C12 UNL     1       2.903  -1.154   2.913  0.00  0.00    +0.000 C 
ATOM     10  C13 UNL     1       2.800  -1.951   1.792  0.00  0.00    +0.000 C 
ATOM     11  C14 UNL     1       2.155  -1.419   0.686  0.00  0.00    +0.000 C 
ATOM     12  F1  UNL     1       2.030  -2.182  -0.409  0.00  0.00    +0.000 F 
ENDBRANCH   5   6
BRANCH   1  13
ATOM     13  C4  UNL     1      -1.480  -0.093  -0.987  0.00  0.00    +0.000 C 
ATOM     14  O1  UNL     1      -1.888   0.178  -2.117  0.00  0.00    +0.000 OA
BRANCH  13  16
ATOM     15  C1  UNL     1      -3.141  -1.143   0.540  0.00  0.00    +0.000 C 
ATOM     16  C2  UNL     1      -1.878  -1.385  -0.277  0.00  0.00    +0.000 C 
ATOM     17  C3  UNL     1      -2.077  -2.516  -1.281  0.00  0.00    +0.000 C 
ENDBRANCH  13  16
ENDBRANCH   1  13
BRANCH   2  18
ATOM     18  O2  UNL     1      -0.504   3.160   0.392  0.00  0.00    +0.000 OA
ATOM     19  H   UNL     1       0.355   2.985   0.808  0.00  0.00    +0.000 HD
ENDBRANCH   2  18
TORSDOF 4
