REMARK  Name = ligantes_elite\Elite_065.pdb
REMARK  6 active torsions:
REMARK  status: ('A' for Active; 'I' for Inactive)
REMARK    1  A    between atoms: C1_1  and  C2_2
REMARK    2  A    between atoms: C2_2  and  C3_3
REMARK    3  A    between atoms: C3_3  and  C4_4
REMARK    4  A    between atoms: C4_4  and  C5_6
REMARK    5  A    between atoms: C9_11  and  C10_12
REMARK    6  A    between atoms: C14_17  and  C15_18
REMARK                            x       y       z     vdW  Elec       q    Type
REMARK                         _______ _______ _______ _____ _____    ______ ____
ROOT
ATOM      1  C5  UNL     1       0.054  -1.107   0.391  0.00  0.00    +0.000 C 
ATOM      2  C6  UNL     1       0.161  -2.614   0.227  0.00  0.00    +0.000 C 
ATOM      3  F1  UNL     1       1.428  -3.007  -0.024  0.00  0.00    +0.000 F 
ATOM      4  C7  UNL     1      -0.771  -2.967  -0.924  0.00  0.00    +0.000 C 
ATOM      5  C8  UNL     1      -1.805  -1.836  -0.982  0.00  0.00    +0.000 C 
ATOM      6  C9  UNL     1      -1.456  -0.889   0.191  0.00  0.00    +0.000 C 
ENDROOT
BRANCH   6   7
ATOM      7  C10 UNL     1      -1.910   0.556   0.161  0.00  0.00    +0.000 C 
ATOM      8  C11 UNL     1      -2.365   1.149  -1.021  0.00  0.00    +0.000 C 
ATOM      9  N1  UNL     1      -2.807   2.424  -1.139  0.00  0.00    +0.000 NA
ATOM     10  C12 UNL     1      -2.784   3.178  -0.030  0.00  0.00    +0.000 C 
ATOM     11  C13 UNL     1      -2.343   2.712   1.194  0.00  0.00    +0.000 C 
ATOM     12  C14 UNL     1      -1.906   1.379   1.312  0.00  0.00    +0.000 C 
BRANCH  12  13
ATOM     13  C15 UNL     1      -1.405   0.953   2.671  0.00  0.00    +0.000 C 
ATOM     14  F2  UNL     1      -1.493  -0.381   2.925  0.00  0.00    +0.000 F 
ENDBRANCH  12  13
ENDBRANCH   6   7
BRANCH   1  15
ATOM     15  C4  UNL     1       0.943  -0.398  -0.628  0.00  0.00    +0.000 C 
ATOM     16  O1  UNL     1       0.558  -0.148  -1.770  0.00  0.00    +0.000 OA
BRANCH  15  17
ATOM     17  C3  UNL     1       2.341  -0.032  -0.150  0.00  0.00    +0.000 C 
BRANCH  17  19
ATOM     18  C1  UNL     1       4.572   0.973  -0.744  0.00  0.00    +0.000 C 
ATOM     19  C2  UNL     1       3.182   0.617  -1.246  0.00  0.00    +0.000 C 
ENDBRANCH  17  19
ENDBRANCH  15  17
ENDBRANCH   1  15
TORSDOF 5
