REMARK  Name = ligantes_elite\Elite_126.pdb
REMARK  7 active torsions:
REMARK  status: ('A' for Active; 'I' for Inactive)
REMARK    1  A    between atoms: C1_1  and  C2_2
REMARK    2  A    between atoms: C2_2  and  C3_3
REMARK    3  A    between atoms: C3_3  and  C4_4
REMARK    4  A    between atoms: C4_4  and  C5_6
REMARK    5  A    between atoms: C6_7  and  O2_8
REMARK    6  A    between atoms: C9_11  and  C10_12
REMARK    7  A    between atoms: C14_17  and  C15_18
REMARK                            x       y       z     vdW  Elec       q    Type
REMARK                         _______ _______ _______ _____ _____    ______ ____
ROOT
ATOM      1  C5  UNL     1       0.189  -1.417  -0.003  0.00  0.00    +0.000 C 
ATOM      2  C6  UNL     1      -0.285  -2.453  -1.017  0.00  0.00    +0.000 C 
ATOM      3  C7  UNL     1      -1.668  -2.892  -0.534  0.00  0.00    +0.000 C 
ATOM      4  C8  UNL     1      -2.097  -1.884   0.535  0.00  0.00    +0.000 C 
ATOM      5  C9  UNL     1      -1.092  -0.715   0.481  0.00  0.00    +0.000 C 
ENDROOT
BRANCH   5   6
ATOM      6  C10 UNL     1      -1.579   0.488  -0.313  0.00  0.00    +0.000 C 
ATOM      7  C11 UNL     1      -2.303   0.344  -1.499  0.00  0.00    +0.000 C 
ATOM      8  N1  UNL     1      -2.792   1.361  -2.246  0.00  0.00    +0.000 NA
ATOM      9  C12 UNL     1      -2.535   2.606  -1.813  0.00  0.00    +0.000 C 
ATOM     10  C13 UNL     1      -1.819   2.880  -0.663  0.00  0.00    +0.000 C 
ATOM     11  C14 UNL     1      -1.321   1.814   0.105  0.00  0.00    +0.000 C 
BRANCH  11  12
ATOM     12  C15 UNL     1      -0.564   2.142   1.369  0.00  0.00    +0.000 C 
ATOM     13  F1  UNL     1       0.558   1.387   1.540  0.00  0.00    +0.000 F 
ATOM     14  F2  UNL     1      -1.318   1.941   2.485  0.00  0.00    +0.000 F 
ENDBRANCH  11  12
ENDBRANCH   5   6
BRANCH   1  15
ATOM     15  C4  UNL     1       1.268  -0.528  -0.606  0.00  0.00    +0.000 C 
ATOM     16  O1  UNL     1       1.086   0.095  -1.652  0.00  0.00    +0.000 OA
BRANCH  15  17
ATOM     17  C3  UNL     1       2.600  -0.498   0.131  0.00  0.00    +0.000 C 
BRANCH  17  19
ATOM     18  C1  UNL     1       3.233   1.951  -0.098  0.00  0.00    +0.000 C 
ATOM     19  C2  UNL     1       3.597   0.511  -0.433  0.00  0.00    +0.000 C 
ENDBRANCH  17  19
ENDBRANCH  15  17
ENDBRANCH   1  15
BRANCH   2  20
ATOM     20  O2  UNL     1       0.604  -3.563  -1.025  0.00  0.00    +0.000 OA
ATOM     21  H   UNL     1       0.654  -3.944  -0.134  0.00  0.00    +0.000 HD
ENDBRANCH   2  20
TORSDOF 6
