REMARK  Name = ligantes_elite\Elite_102.pdb
REMARK  6 active torsions:
REMARK  status: ('A' for Active; 'I' for Inactive)
REMARK    1  A    between atoms: C1_1  and  C2_2
REMARK    2  A    between atoms: C2_2  and  C3_3
REMARK    3  A    between atoms: C3_3  and  C4_4
REMARK    4  A    between atoms: C4_4  and  C5_6
REMARK    5  A    between atoms: C6_7  and  C7_8
REMARK    6  A    between atoms: C10_12  and  C11_13
REMARK                            x       y       z     vdW  Elec       q    Type
REMARK                         _______ _______ _______ _____ _____    ______ ____
ROOT
ATOM      1  C5  UNL     1       0.084   1.055   0.371  0.00  0.00    +0.000 C 
ATOM      2  C6  UNL     1      -0.284   2.504   0.742  0.00  0.00    +0.000 C 
ATOM      3  C8  UNL     1      -1.673   2.677   0.138  0.00  0.00    +0.000 C 
ATOM      4  C9  UNL     1      -2.364   1.368   0.490  0.00  0.00    +0.000 C 
ATOM      5  C10 UNL     1      -1.263   0.288   0.429  0.00  0.00    +0.000 C 
ENDROOT
BRANCH   5   6
ATOM      6  C11 UNL     1      -1.453  -0.660  -0.733  0.00  0.00    +0.000 C 
ATOM      7  C12 UNL     1      -1.495  -0.240  -2.056  0.00  0.00    +0.000 C 
ATOM      8  N1  UNL     1      -1.654  -1.067  -3.115  0.00  0.00    +0.000 NA
ATOM      9  C13 UNL     1      -1.794  -2.384  -2.855  0.00  0.00    +0.000 C 
ATOM     10  C14 UNL     1      -1.776  -2.913  -1.583  0.00  0.00    +0.000 C 
ATOM     11  C15 UNL     1      -1.604  -2.031  -0.527  0.00  0.00    +0.000 C 
ATOM     12  F2  UNL     1      -1.575  -2.526   0.719  0.00  0.00    +0.000 F 
ENDBRANCH   5   6
BRANCH   1  13
ATOM     13  C4  UNL     1       1.134   0.463   1.313  0.00  0.00    +0.000 C 
ATOM     14  O1  UNL     1       1.637   1.135   2.213  0.00  0.00    +0.000 OA
BRANCH  13  15
ATOM     15  C3  UNL     1       1.553  -0.977   1.059  0.00  0.00    +0.000 C 
BRANCH  15  17
ATOM     16  C1  UNL     1       3.292  -2.756   1.443  0.00  0.00    +0.000 C 
ATOM     17  C2  UNL     1       2.870  -1.327   1.747  0.00  0.00    +0.000 C 
ENDBRANCH  15  17
ENDBRANCH  13  15
ENDBRANCH   1  13
BRANCH   2  18
ATOM     18  C7  UNL     1       0.710   3.533   0.228  0.00  0.00    +0.000 C 
ATOM     19  F1  UNL     1       0.256   4.776   0.543  0.00  0.00    +0.000 F 
ENDBRANCH   2  18
TORSDOF 5
