REMARK  Name = ligantes_elite\Elite_015.pdb
REMARK  7 active torsions:
REMARK  status: ('A' for Active; 'I' for Inactive)
REMARK    1  A    between atoms: C1_1  and  C2_2
REMARK    2  A    between atoms: C2_2  and  C3_3
REMARK    3  A    between atoms: C3_3  and  C4_4
REMARK    4  A    between atoms: C4_4  and  C5_6
REMARK    5  A    between atoms: C6_7  and  C7_8
REMARK    6  A    between atoms: C10_11  and  C11_12
REMARK    7  A    between atoms: C15_17  and  N2_18
REMARK                            x       y       z     vdW  Elec       q    Type
REMARK                         _______ _______ _______ _____ _____    ______ ____
ROOT
ATOM      1  C5  UNL     1       0.165  -0.002  -0.561  0.00  0.00    +0.000 C 
ATOM      2  C6  UNL     1       0.921  -0.589  -1.769  0.00  0.00    +0.000 C 
ATOM      3  C7  UNL     1       2.011  -1.604  -1.416  0.00  0.00    +0.000 C 
ATOM      4  C8  UNL     1      -0.201  -1.237  -2.582  0.00  0.00    +0.000 C 
ATOM      5  C9  UNL     1      -1.082  -1.891  -1.528  0.00  0.00    +0.000 C 
ATOM      6  C10 UNL     1      -1.066  -0.921  -0.326  0.00  0.00    +0.000 C 
ENDROOT
BRANCH   6   7
ATOM      7  C11 UNL     1      -2.319  -0.085  -0.100  0.00  0.00    +0.000 C 
ATOM      8  C12 UNL     1      -3.229   0.172  -1.129  0.00  0.00    +0.000 C 
ATOM      9  N1  UNL     1      -4.346   0.926  -1.012  0.00  0.00    +0.000 NA
ATOM     10  C13 UNL     1      -4.568   1.482   0.191  0.00  0.00    +0.000 C 
ATOM     11  C14 UNL     1      -3.728   1.314   1.276  0.00  0.00    +0.000 C 
ATOM     12  C15 UNL     1      -2.603   0.492   1.152  0.00  0.00    +0.000 C 
BRANCH  12  13
ATOM     13  N2  UNL     1      -1.687   0.472   2.214  0.00  0.00    +0.000 N 
ATOM     14  H   UNL     1      -0.884  -0.095   2.161  0.00  0.00    +0.000 HD
ATOM     15  H   UNL     1      -1.847   1.025   3.013  0.00  0.00    +0.000 HD
ENDBRANCH  12  13
ENDBRANCH   6   7
BRANCH   1  16
ATOM     16  C4  UNL     1       1.036   0.167   0.681  0.00  0.00    +0.000 C 
ATOM     17  O1  UNL     1       1.012  -0.650   1.604  0.00  0.00    +0.000 OA
BRANCH  16  18
ATOM     18  C3  UNL     1       1.919   1.406   0.712  0.00  0.00    +0.000 C 
BRANCH  18  20
ATOM     19  C1  UNL     1       4.067   0.447   1.662  0.00  0.00    +0.000 C 
ATOM     20  C2  UNL     1       2.917   1.424   1.867  0.00  0.00    +0.000 C 
ENDBRANCH  18  20
ENDBRANCH  16  18
ENDBRANCH   1  16
TORSDOF 5
