REMARK  Name = ligantes_elite\Elite_120.pdb
REMARK  4 active torsions:
REMARK  status: ('A' for Active; 'I' for Inactive)
REMARK    1  A    between atoms: C1_2  and  C2_3
REMARK    2  A    between atoms: C1_2  and  C5_6
REMARK    3  A    between atoms: C6_7  and  C7_8
REMARK    4  A    between atoms: C10_12  and  C11_13
REMARK                            x       y       z     vdW  Elec       q    Type
REMARK                         _______ _______ _______ _____ _____    ______ ____
ROOT
ATOM      1  C5  UNL     1      -0.160  -0.641  -1.119  0.00  0.00    +0.000 C 
ATOM      2  C6  UNL     1      -0.940  -1.959  -0.929  0.00  0.00    +0.000 C 
ATOM      3  C8  UNL     1       0.044  -2.901  -0.237  0.00  0.00    +0.000 C 
ATOM      4  C9  UNL     1       0.822  -1.963   0.674  0.00  0.00    +0.000 C 
ATOM      5  C10 UNL     1       1.116  -0.756  -0.237  0.00  0.00    +0.000 C 
ENDROOT
BRANCH   5   6
ATOM      6  C11 UNL     1       1.652   0.506   0.405  0.00  0.00    +0.000 C 
ATOM      7  C12 UNL     1       1.587   0.699   1.787  0.00  0.00    +0.000 C 
ATOM      8  N1  UNL     1       2.009   1.803   2.447  0.00  0.00    +0.000 NA
ATOM      9  C13 UNL     1       2.551   2.786   1.707  0.00  0.00    +0.000 C 
ATOM     10  C14 UNL     1       2.698   2.709   0.338  0.00  0.00    +0.000 C 
ATOM     11  C15 UNL     1       2.252   1.556  -0.314  0.00  0.00    +0.000 C 
ATOM     12  I1  UNL     1       2.594   1.509  -2.391  0.00  0.00    +0.000 I 
ENDBRANCH   5   6
BRANCH   1  14
ATOM     13  O1  UNL     1      -1.405   1.284  -1.816  0.00  0.00    +0.000 OA
ATOM     14  C1  UNL     1      -1.067   0.558  -0.885  0.00  0.00    +0.000 C 
BRANCH  14  15
ATOM     15  C2  UNL     1      -1.587   0.810   0.494  0.00  0.00    +0.000 C 
ATOM     16  C3  UNL     1      -2.884   1.559   0.693  0.00  0.00    +0.000 C 
ATOM     17  C4  UNL     1      -1.581   2.216   1.046  0.00  0.00    +0.000 C 
ENDBRANCH  14  15
ENDBRANCH   1  14
BRANCH   2  18
ATOM     18  C7  UNL     1      -1.476  -2.524  -2.236  0.00  0.00    +0.000 C 
ATOM     19  F1  UNL     1      -2.156  -3.670  -1.964  0.00  0.00    +0.000 F 
ENDBRANCH   2  18
TORSDOF 4
