REMARK  Name = ligantes_elite\Elite_004.pdb
REMARK  6 active torsions:
REMARK  status: ('A' for Active; 'I' for Inactive)
REMARK    1  A    between atoms: C1_1  and  C2_2
REMARK    2  A    between atoms: C2_2  and  C3_3
REMARK    3  A    between atoms: C2_2  and  C4_4
REMARK    4  A    between atoms: C4_4  and  C5_6
REMARK    5  A    between atoms: C6_7  and  C7_8
REMARK    6  A    between atoms: C10_11  and  C11_12
REMARK                            x       y       z     vdW  Elec       q    Type
REMARK                         _______ _______ _______ _____ _____    ______ ____
ROOT
ATOM      1  C5  UNL     1       0.341  -0.677   0.435  0.00  0.00    +0.000 C 
ATOM      2  C6  UNL     1       0.417  -2.095   1.048  0.00  0.00    +0.000 C 
ATOM      3  C7  UNL     1       0.604  -3.159  -0.034  0.00  0.00    +0.000 C 
ATOM      4  C8  UNL     1      -0.909  -2.272   1.793  0.00  0.00    +0.000 C 
ATOM      5  C9  UNL     1      -1.909  -1.476   0.971  0.00  0.00    +0.000 C 
ATOM      6  C10 UNL     1      -1.128  -0.212   0.588  0.00  0.00    +0.000 C 
ENDROOT
BRANCH   6   7
ATOM      7  C11 UNL     1      -1.673   0.484  -0.634  0.00  0.00    +0.000 C 
ATOM      8  C12 UNL     1      -1.801  -0.143  -1.868  0.00  0.00    +0.000 C 
ATOM      9  N1  UNL     1      -2.265   0.460  -2.986  0.00  0.00    +0.000 NA
ATOM     10  C13 UNL     1      -2.631   1.755  -2.883  0.00  0.00    +0.000 C 
ATOM     11  C14 UNL     1      -2.548   2.477  -1.711  0.00  0.00    +0.000 C 
ATOM     12  C15 UNL     1      -2.061   1.822  -0.590  0.00  0.00    +0.000 C 
ATOM     13  F1  UNL     1      -1.957   2.512   0.555  0.00  0.00    +0.000 F 
ENDBRANCH   6   7
BRANCH   1  14
ATOM     14  C4  UNL     1       1.281   0.264   1.189  0.00  0.00    +0.000 C 
ATOM     15  O1  UNL     1       1.148   0.456   2.399  0.00  0.00    +0.000 OA
BRANCH  14  17
ATOM     16  C1  UNL     1       1.821   2.034  -0.498  0.00  0.00    +0.000 C 
ATOM     17  C2  UNL     1       2.395   0.930   0.382  0.00  0.00    +0.000 C 
ATOM     18  C3  UNL     1       3.481   1.486   1.301  0.00  0.00    +0.000 C 
ENDBRANCH  14  17
ENDBRANCH   1  14
TORSDOF 3
