REMARK  Name = ligantes_elite\Elite_188.pdb
REMARK  5 active torsions:
REMARK  status: ('A' for Active; 'I' for Inactive)
REMARK    1  A    between atoms: C1_2  and  C2_4
REMARK    2  A    between atoms: C2_4  and  C3_6
REMARK    3  A    between atoms: C4_7  and  O3_8
REMARK    4  A    between atoms: C7_11  and  C8_12
REMARK    5  A    between atoms: C12_17  and  C13_18
REMARK                            x       y       z     vdW  Elec       q    Type
REMARK                         _______ _______ _______ _____ _____    ______ ____
ROOT
ATOM      1  C3  UNL     1       0.819  -0.324  -0.689  0.00  0.00    +0.000 C 
ATOM      2  C4  UNL     1       1.687  -1.585  -0.720  0.00  0.00    +0.000 C 
ATOM      3  C5  UNL     1       0.961  -2.578   0.171  0.00  0.00    +0.000 C 
ATOM      4  C6  UNL     1       0.429  -1.736   1.311  0.00  0.00    +0.000 C 
ATOM      5  C7  UNL     1       0.113  -0.360   0.696  0.00  0.00    +0.000 C 
ENDROOT
BRANCH   5   6
ATOM      6  C8  UNL     1      -1.379  -0.082   0.602  0.00  0.00    +0.000 C 
ATOM      7  C9  UNL     1      -2.208  -0.904  -0.169  0.00  0.00    +0.000 C 
ATOM      8  N2  UNL     1      -3.538  -0.734  -0.324  0.00  0.00    +0.000 NA
ATOM      9  C10 UNL     1      -4.096   0.300   0.328  0.00  0.00    +0.000 C 
ATOM     10  C11 UNL     1      -3.379   1.179   1.121  0.00  0.00    +0.000 C 
ATOM     11  C12 UNL     1      -1.996   0.995   1.270  0.00  0.00    +0.000 C 
BRANCH  11  12
ATOM     12  C13 UNL     1      -1.233   1.949   2.151  0.00  0.00    +0.000 C 
ATOM     13  F1  UNL     1      -0.624   1.322   3.194  0.00  0.00    +0.000 F 
ENDBRANCH  11  12
ENDBRANCH   5   6
BRANCH   1  14
ATOM     14  C2  UNL     1       1.635   0.950  -0.856  0.00  0.00    +0.000 C 
ATOM     15  O2  UNL     1       1.606   1.910  -0.089  0.00  0.00    +0.000 OA
BRANCH  14  17
ATOM     16  N1  UNL     1       2.930   2.354  -2.374  0.00  0.00    +0.000 N 
ATOM     17  C1  UNL     1       2.487   1.086  -2.127  0.00  0.00    +0.000 C 
ATOM     18  O1  UNL     1       2.745   0.130  -2.838  0.00  0.00    +0.000 OA
ATOM     19  H   UNL     1       3.484   2.536  -3.167  0.00  0.00    +0.000 HD
ATOM     20  H   UNL     1       2.696   3.086  -1.759  0.00  0.00    +0.000 HD
ENDBRANCH  14  17
ENDBRANCH   1  14
BRANCH   2  21
ATOM     21  O3  UNL     1       1.761  -2.145  -2.022  0.00  0.00    +0.000 OA
ATOM     22  H   UNL     1       0.868  -2.361  -2.332  0.00  0.00    +0.000 HD
ENDBRANCH   2  21
TORSDOF 5
