REMARK  Name = ligantes_elite\Elite_098.pdb
REMARK  5 active torsions:
REMARK  status: ('A' for Active; 'I' for Inactive)
REMARK    1  A    between atoms: C1_1  and  C2_2
REMARK    2  A    between atoms: C2_2  and  C3_3
REMARK    3  A    between atoms: C3_3  and  C4_5
REMARK    4  A    between atoms: C5_6  and  C6_7
REMARK    5  A    between atoms: C9_11  and  C10_12
REMARK                            x       y       z     vdW  Elec       q    Type
REMARK                         _______ _______ _______ _____ _____    ______ ____
ROOT
ATOM      1  C4  UNL     1      -0.741  -0.370  -0.173  0.00  0.00    +0.000 C 
ATOM      2  C5  UNL     1      -1.364  -1.537  -0.949  0.00  0.00    +0.000 C 
ATOM      3  C7  UNL     1      -0.196  -1.975  -1.837  0.00  0.00    +0.000 C 
ATOM      4  C8  UNL     1       1.039  -1.878  -0.942  0.00  0.00    +0.000 C 
ATOM      5  C9  UNL     1       0.700  -0.831   0.141  0.00  0.00    +0.000 C 
ENDROOT
BRANCH   5   6
ATOM      6  C10 UNL     1       1.666   0.323   0.223  0.00  0.00    +0.000 C 
ATOM      7  C11 UNL     1       2.222   0.697   1.440  0.00  0.00    +0.000 C 
ATOM      8  N1  UNL     1       3.080   1.732   1.598  0.00  0.00    +0.000 NA
ATOM      9  C12 UNL     1       3.408   2.438   0.496  0.00  0.00    +0.000 C 
ATOM     10  C13 UNL     1       2.909   2.163  -0.759  0.00  0.00    +0.000 C 
ATOM     11  C14 UNL     1       2.031   1.097  -0.878  0.00  0.00    +0.000 C 
ATOM     12  F2  UNL     1       1.513   0.827  -2.085  0.00  0.00    +0.000 F 
ENDBRANCH   5   6
BRANCH   1  13
ATOM     13  C3  UNL     1      -1.520   0.016   1.074  0.00  0.00    +0.000 C 
ATOM     14  O1  UNL     1      -1.389  -0.599   2.133  0.00  0.00    +0.000 OA
BRANCH  13  16
ATOM     15  C1  UNL     1      -1.751   2.498   1.105  0.00  0.00    +0.000 C 
ATOM     16  C2  UNL     1      -2.482   1.178   0.960  0.00  0.00    +0.000 C 
ENDBRANCH  13  16
ENDBRANCH   1  13
BRANCH   2  17
ATOM     17  C6  UNL     1      -1.874  -2.691  -0.084  0.00  0.00    +0.000 C 
ATOM     18  F1  UNL     1      -2.347  -3.667  -0.909  0.00  0.00    +0.000 F 
ENDBRANCH   2  17
TORSDOF 4
