REMARK  Name = ligantes_elite\Elite_135.pdb
REMARK  6 active torsions:
REMARK  status: ('A' for Active; 'I' for Inactive)
REMARK    1  A    between atoms: C1_1  and  C2_2
REMARK    2  A    between atoms: C2_2  and  C3_3
REMARK    3  A    between atoms: C3_3  and  C4_5
REMARK    4  A    between atoms: C5_6  and  O2_7
REMARK    5  A    between atoms: C8_10  and  C9_11
REMARK    6  A    between atoms: C13_16  and  C14_17
REMARK                            x       y       z     vdW  Elec       q    Type
REMARK                         _______ _______ _______ _____ _____    ______ ____
ROOT
ATOM      1  C4  UNL     1      -0.620  -0.371   0.166  0.00  0.00    +0.000 C 
ATOM      2  C5  UNL     1      -1.225  -1.775   0.171  0.00  0.00    +0.000 C 
ATOM      3  C6  UNL     1      -0.004  -2.683   0.126  0.00  0.00    +0.000 C 
ATOM      4  C7  UNL     1       0.960  -1.980  -0.830  0.00  0.00    +0.000 C 
ATOM      5  C8  UNL     1       0.552  -0.490  -0.835  0.00  0.00    +0.000 C 
ENDROOT
BRANCH   5   6
ATOM      6  C9  UNL     1       1.701   0.477  -0.604  0.00  0.00    +0.000 C 
ATOM      7  C10 UNL     1       1.950   1.445  -1.579  0.00  0.00    +0.000 C 
ATOM      8  N1  UNL     1       2.951   2.355  -1.528  0.00  0.00    +0.000 NA
ATOM      9  C11 UNL     1       3.748   2.332  -0.446  0.00  0.00    +0.000 C 
ATOM     10  C12 UNL     1       3.588   1.436   0.591  0.00  0.00    +0.000 C 
ATOM     11  C13 UNL     1       2.552   0.498   0.514  0.00  0.00    +0.000 C 
BRANCH  11  12
ATOM     12  C14 UNL     1       2.403  -0.407   1.616  0.00  0.00    +0.000 C 
ATOM     13  N2  UNL     1       2.269  -1.130   2.514  0.00  0.00    +0.000 NA
ENDBRANCH  11  12
ENDBRANCH   5   6
BRANCH   1  14
ATOM     14  C3  UNL     1      -1.619   0.719  -0.211  0.00  0.00    +0.000 C 
ATOM     15  O1  UNL     1      -1.339   1.588  -1.039  0.00  0.00    +0.000 OA
BRANCH  14  17
ATOM     16  C1  UNL     1      -3.745   1.996   0.288  0.00  0.00    +0.000 C 
ATOM     17  C2  UNL     1      -2.937   0.737   0.551  0.00  0.00    +0.000 C 
ENDBRANCH  14  17
ENDBRANCH   1  14
BRANCH   2  18
ATOM     18  O2  UNL     1      -2.010  -1.990  -0.996  0.00  0.00    +0.000 OA
ATOM     19  H   UNL     1      -1.464  -1.846  -1.784  0.00  0.00    +0.000 HD
ENDBRANCH   2  18
TORSDOF 5
