REMARK  Name = ligantes_elite\Elite_128.pdb
REMARK  4 active torsions:
REMARK  status: ('A' for Active; 'I' for Inactive)
REMARK    1  A    between atoms: C1_2  and  C2_4
REMARK    2  A    between atoms: C2_4  and  C3_6
REMARK    3  A    between atoms: C4_7  and  O3_8
REMARK    4  A    between atoms: C7_11  and  C8_12
REMARK                            x       y       z     vdW  Elec       q    Type
REMARK                         _______ _______ _______ _____ _____    ______ ____
ROOT
ATOM      1  C3  UNL     1      -1.299  -0.415   0.652  0.00  0.00    +0.000 C 
ATOM      2  C4  UNL     1      -1.982  -1.512  -0.167  0.00  0.00    +0.000 C 
ATOM      3  C5  UNL     1      -1.231  -2.764   0.272  0.00  0.00    +0.000 C 
ATOM      4  C6  UNL     1       0.228  -2.311   0.296  0.00  0.00    +0.000 C 
ATOM      5  C7  UNL     1       0.192  -0.835   0.757  0.00  0.00    +0.000 C 
ENDROOT
BRANCH   5   6
ATOM      6  C8  UNL     1       1.243   0.032   0.106  0.00  0.00    +0.000 C 
ATOM      7  C9  UNL     1       2.125   0.769   0.893  0.00  0.00    +0.000 C 
ATOM      8  N2  UNL     1       3.097   1.579   0.410  0.00  0.00    +0.000 NA
ATOM      9  C10 UNL     1       3.212   1.671  -0.929  0.00  0.00    +0.000 C 
ATOM     10  C11 UNL     1       2.398   0.989  -1.806  0.00  0.00    +0.000 C 
ATOM     11  C12 UNL     1       1.416   0.168  -1.270  0.00  0.00    +0.000 C 
ATOM     12  F1  UNL     1       0.637  -0.505  -2.124  0.00  0.00    +0.000 F 
ENDBRANCH   5   6
BRANCH   1  13
ATOM     13  C2  UNL     1      -1.616   1.004   0.226  0.00  0.00    +0.000 C 
ATOM     14  O2  UNL     1      -2.388   1.338  -0.666  0.00  0.00    +0.000 OA
BRANCH  13  16
ATOM     15  N1  UNL     1      -0.995   3.345   0.502  0.00  0.00    +0.000 N 
ATOM     16  C1  UNL     1      -1.006   2.111   1.088  0.00  0.00    +0.000 C 
ATOM     17  O1  UNL     1      -0.583   1.878   2.208  0.00  0.00    +0.000 OA
ATOM     18  H   UNL     1      -0.621   4.116   0.986  0.00  0.00    +0.000 HD
ATOM     19  H   UNL     1      -1.362   3.463  -0.404  0.00  0.00    +0.000 HD
ENDBRANCH  13  16
ENDBRANCH   1  13
BRANCH   2  20
ATOM     20  O3  UNL     1      -1.795  -1.340  -1.560  0.00  0.00    +0.000 OA
ATOM     21  H   UNL     1      -0.846  -1.318  -1.758  0.00  0.00    +0.000 HD
ENDBRANCH   2  20
TORSDOF 4
