REMARK  Name = ligantes_elite\Elite_014.pdb
REMARK  6 active torsions:
REMARK  status: ('A' for Active; 'I' for Inactive)
REMARK    1  A    between atoms: C1_1  and  C2_2
REMARK    2  A    between atoms: C2_2  and  C3_3
REMARK    3  A    between atoms: C2_2  and  C4_4
REMARK    4  A    between atoms: C4_4  and  C5_6
REMARK    5  A    between atoms: C9_11  and  C10_12
REMARK    6  A    between atoms: C14_17  and  N2_18
REMARK                            x       y       z     vdW  Elec       q    Type
REMARK                         _______ _______ _______ _____ _____    ______ ____
ROOT
ATOM      1  C5  UNL     1      -0.275  -1.218   0.509  0.00  0.00    +0.000 C 
ATOM      2  C6  UNL     1      -0.747  -2.665   0.430  0.00  0.00    +0.000 C 
ATOM      3  F1  UNL     1       0.043  -3.400   1.271  0.00  0.00    +0.000 F 
ATOM      4  C7  UNL     1      -0.476  -3.144  -0.996  0.00  0.00    +0.000 C 
ATOM      5  C8  UNL     1       0.325  -2.031  -1.673  0.00  0.00    +0.000 C 
ATOM      6  C9  UNL     1       0.871  -1.180  -0.516  0.00  0.00    +0.000 C 
ENDROOT
BRANCH   6   7
ATOM      7  C10 UNL     1       1.412   0.200  -0.819  0.00  0.00    +0.000 C 
ATOM      8  C11 UNL     1       1.156   0.845  -2.031  0.00  0.00    +0.000 C 
ATOM      9  N1  UNL     1       1.556   2.100  -2.339  0.00  0.00    +0.000 NA
ATOM     10  C12 UNL     1       2.233   2.768  -1.390  0.00  0.00    +0.000 C 
ATOM     11  C13 UNL     1       2.550   2.228  -0.158  0.00  0.00    +0.000 C 
ATOM     12  C14 UNL     1       2.188   0.907   0.119  0.00  0.00    +0.000 C 
BRANCH  12  13
ATOM     13  N2  UNL     1       2.423   0.411   1.415  0.00  0.00    +0.000 N 
ATOM     14  H   UNL     1       2.178  -0.516   1.639  0.00  0.00    +0.000 HD
ATOM     15  H   UNL     1       2.832   0.991   2.097  0.00  0.00    +0.000 HD
ENDBRANCH  12  13
ENDBRANCH   6   7
BRANCH   1  16
ATOM     16  C4  UNL     1      -1.422  -0.271   0.181  0.00  0.00    +0.000 C 
ATOM     17  O1  UNL     1      -2.255  -0.553  -0.682  0.00  0.00    +0.000 OA
BRANCH  16  19
ATOM     18  C1  UNL     1      -2.121   2.143   0.159  0.00  0.00    +0.000 C 
ATOM     19  C2  UNL     1      -1.515   1.018   0.993  0.00  0.00    +0.000 C 
ATOM     20  C3  UNL     1      -2.336   0.760   2.251  0.00  0.00    +0.000 C 
ENDBRANCH  16  19
ENDBRANCH   1  16
TORSDOF 4
