REMARK  Name = ligantes_elite\Elite_185.pdb
REMARK  6 active torsions:
REMARK  status: ('A' for Active; 'I' for Inactive)
REMARK    1  A    between atoms: C1_1  and  C2_2
REMARK    2  A    between atoms: C2_2  and  C3_3
REMARK    3  A    between atoms: C3_3  and  C4_4
REMARK    4  A    between atoms: C4_4  and  C5_6
REMARK    5  A    between atoms: C6_7  and  C7_8
REMARK    6  A    between atoms: C10_12  and  C11_13
REMARK                            x       y       z     vdW  Elec       q    Type
REMARK                         _______ _______ _______ _____ _____    ______ ____
ROOT
ATOM      1  C5  UNL     1       0.054  -1.217  -0.128  0.00  0.00    +0.000 C 
ATOM      2  C6  UNL     1      -0.999  -2.305   0.132  0.00  0.00    +0.000 C 
ATOM      3  C8  UNL     1      -1.728  -2.406  -1.207  0.00  0.00    +0.000 C 
ATOM      4  C9  UNL     1      -1.873  -0.958  -1.661  0.00  0.00    +0.000 C 
ATOM      5  C10 UNL     1      -0.624  -0.232  -1.116  0.00  0.00    +0.000 C 
ENDROOT
BRANCH   5   6
ATOM      6  C11 UNL     1      -0.815   1.228  -0.756  0.00  0.00    +0.000 C 
ATOM      7  C12 UNL     1       0.003   2.144  -1.438  0.00  0.00    +0.000 C 
ATOM      8  N1  UNL     1       0.018   3.484  -1.264  0.00  0.00    +0.000 NA
ATOM      9  C13 UNL     1      -0.840   3.980  -0.360  0.00  0.00    +0.000 C 
ATOM     10  C14 UNL     1      -1.712   3.193   0.364  0.00  0.00    +0.000 C 
ATOM     11  C15 UNL     1      -1.706   1.805   0.162  0.00  0.00    +0.000 C 
ATOM     12  I1  UNL     1      -3.141   0.783   1.312  0.00  0.00    +0.000 I 
ENDBRANCH   5   6
BRANCH   1  13
ATOM     13  C4  UNL     1       0.663  -0.667   1.158  0.00  0.00    +0.000 C 
ATOM     14  O1  UNL     1      -0.022  -0.367   2.134  0.00  0.00    +0.000 OA
BRANCH  13  15
ATOM     15  C3  UNL     1       2.179  -0.571   1.232  0.00  0.00    +0.000 C 
BRANCH  15  17
ATOM     16  C1  UNL     1       2.485   1.938   1.232  0.00  0.00    +0.000 C 
ATOM     17  C2  UNL     1       2.748   0.632   0.496  0.00  0.00    +0.000 C 
ENDBRANCH  15  17
ENDBRANCH  13  15
ENDBRANCH   1  13
BRANCH   2  18
ATOM     18  C7  UNL     1      -0.402  -3.633   0.572  0.00  0.00    +0.000 C 
ATOM     19  F1  UNL     1      -1.403  -4.540   0.719  0.00  0.00    +0.000 F 
ENDBRANCH   2  18
TORSDOF 5
