REMARK  Name = ligantes_elite\Elite_184.pdb
REMARK  5 active torsions:
REMARK  status: ('A' for Active; 'I' for Inactive)
REMARK    1  A    between atoms: C1_2  and  C2_4
REMARK    2  A    between atoms: C2_4  and  C3_6
REMARK    3  A    between atoms: C4_7  and  C5_8
REMARK    4  A    between atoms: C8_12  and  C9_13
REMARK    5  A    between atoms: C13_18  and  C14_19
REMARK                            x       y       z     vdW  Elec       q    Type
REMARK                         _______ _______ _______ _____ _____    ______ ____
ROOT
ATOM      1  C3  UNL     1       0.780  -0.180   0.398  0.00  0.00    +0.000 C 
ATOM      2  C4  UNL     1       1.921  -1.119  -0.039  0.00  0.00    +0.000 C 
ATOM      3  C6  UNL     1       1.280  -2.082  -1.033  0.00  0.00    +0.000 C 
ATOM      4  C7  UNL     1      -0.113  -2.295  -0.463  0.00  0.00    +0.000 C 
ATOM      5  C8  UNL     1      -0.550  -0.917   0.068  0.00  0.00    +0.000 C 
ENDROOT
BRANCH   5   6
ATOM      6  C9  UNL     1      -1.435  -0.090  -0.860  0.00  0.00    +0.000 C 
ATOM      7  C10 UNL     1      -1.395  -0.240  -2.249  0.00  0.00    +0.000 C 
ATOM      8  N2  UNL     1      -2.133   0.471  -3.132  0.00  0.00    +0.000 NA
ATOM      9  C11 UNL     1      -2.964   1.395  -2.622  0.00  0.00    +0.000 C 
ATOM     10  C12 UNL     1      -3.093   1.638  -1.268  0.00  0.00    +0.000 C 
ATOM     11  C13 UNL     1      -2.324   0.890  -0.362  0.00  0.00    +0.000 C 
BRANCH  11  12
ATOM     12  C14 UNL     1      -2.479   1.176   1.109  0.00  0.00    +0.000 C 
ATOM     13  F2  UNL     1      -1.328   1.640   1.669  0.00  0.00    +0.000 F 
ENDBRANCH  11  12
ENDBRANCH   5   6
BRANCH   1  14
ATOM     14  C2  UNL     1       0.899   0.082   1.890  0.00  0.00    +0.000 C 
ATOM     15  O2  UNL     1       0.467  -0.664   2.764  0.00  0.00    +0.000 OA
BRANCH  14  17
ATOM     16  N1  UNL     1       1.642   1.600   3.650  0.00  0.00    +0.000 N 
ATOM     17  C1  UNL     1       1.665   1.343   2.307  0.00  0.00    +0.000 C 
ATOM     18  O1  UNL     1       2.255   2.032   1.493  0.00  0.00    +0.000 OA
ATOM     19  H   UNL     1       2.108   2.390   4.008  0.00  0.00    +0.000 HD
ATOM     20  H   UNL     1       1.159   0.995   4.259  0.00  0.00    +0.000 HD
ENDBRANCH  14  17
ENDBRANCH   1  14
BRANCH   2  21
ATOM     21  C5  UNL     1       3.114  -0.389  -0.639  0.00  0.00    +0.000 C 
ATOM     22  F1  UNL     1       4.040  -1.313  -1.015  0.00  0.00    +0.000 F 
ENDBRANCH   2  21
TORSDOF 5
