REMARK  Name = ligantes_elite\Elite_115.pdb
REMARK  4 active torsions:
REMARK  status: ('A' for Active; 'I' for Inactive)
REMARK    1  A    between atoms: C1_1  and  C2_2
REMARK    2  A    between atoms: C5_5  and  C6_6
REMARK    3  A    between atoms: C11_13  and  C12_14
REMARK    4  A    between atoms: C12_14  and  C13_16
REMARK                            x       y       z     vdW  Elec       q    Type
REMARK                         _______ _______ _______ _____ _____    ______ ____
ROOT
ATOM      1  C1  UNL     1      -1.802   2.187  -0.993  0.00  0.00    +0.000 C 
ATOM      2  C2  UNL     1      -0.990   1.832   0.256  0.00  0.00    +0.000 C 
ATOM      3  C3  UNL     1       0.234   2.743   0.390  0.00  0.00    +0.000 C 
ATOM      4  C4  UNL     1       1.330   2.085  -0.449  0.00  0.00    +0.000 C 
ATOM      5  C5  UNL     1       0.925   0.605  -0.600  0.00  0.00    +0.000 C 
ATOM      6  C11 UNL     1      -0.358   0.428   0.238  0.00  0.00    +0.000 C 
ENDROOT
BRANCH   5   7
ATOM      7  C6  UNL     1       2.010  -0.425  -0.351  0.00  0.00    +0.000 C 
ATOM      8  C7  UNL     1       2.262  -1.328  -1.394  0.00  0.00    +0.000 C 
ATOM      9  N1  UNL     1       3.193  -2.310  -1.379  0.00  0.00    +0.000 NA
ATOM     10  C8  UNL     1       3.924  -2.433  -0.261  0.00  0.00    +0.000 C 
ATOM     11  C9  UNL     1       3.761  -1.620   0.842  0.00  0.00    +0.000 C 
ATOM     12  C10 UNL     1       2.792  -0.608   0.800  0.00  0.00    +0.000 C 
ATOM     13  I1  UNL     1       2.641   0.515   2.570  0.00  0.00    +0.000 I 
ENDBRANCH   5   7
BRANCH   6  14
ATOM     14  C12 UNL     1      -1.290  -0.641  -0.307  0.00  0.00    +0.000 C 
ATOM     15  O1  UNL     1      -1.202  -1.111  -1.436  0.00  0.00    +0.000 OA
BRANCH  14  16
ATOM     16  C13 UNL     1      -2.364  -1.094   0.629  0.00  0.00    +0.000 C 
ATOM     17  C14 UNL     1      -3.736  -1.433   0.097  0.00  0.00    +0.000 C 
ATOM     18  C15 UNL     1      -2.838  -2.528   0.599  0.00  0.00    +0.000 C 
ENDBRANCH  14  16
ENDBRANCH   6  14
TORSDOF 3
