REMARK  Name = ligantes_elite\Elite_043.pdb
REMARK  3 active torsions:
REMARK  status: ('A' for Active; 'I' for Inactive)
REMARK    1  A    between atoms: C1_2  and  C2_3
REMARK    2  A    between atoms: C1_2  and  C5_6
REMARK    3  A    between atoms: C9_11  and  C10_12
REMARK                            x       y       z     vdW  Elec       q    Type
REMARK                         _______ _______ _______ _____ _____    ______ ____
ROOT
ATOM      1  C5  UNL     1       0.619  -0.989  -0.355  0.00  0.00    +0.000 C 
ATOM      2  C6  UNL     1       0.979  -2.455  -0.147  0.00  0.00    +0.000 C 
ATOM      3  F1  UNL     1       1.051  -3.042  -1.378  0.00  0.00    +0.000 F 
ATOM      4  C7  UNL     1      -0.188  -3.094   0.606  0.00  0.00    +0.000 C 
ATOM      5  C8  UNL     1      -1.303  -2.048   0.633  0.00  0.00    +0.000 C 
ATOM      6  C9  UNL     1      -0.916  -1.024  -0.443  0.00  0.00    +0.000 C 
ENDROOT
BRANCH   6   7
ATOM      7  C10 UNL     1      -1.595   0.320  -0.422  0.00  0.00    +0.000 C 
ATOM      8  C11 UNL     1      -2.455   0.749   0.578  0.00  0.00    +0.000 C 
ATOM      9  N1  UNL     1      -3.068   1.958   0.589  0.00  0.00    +0.000 NA
ATOM     10  C12 UNL     1      -2.829   2.788  -0.447  0.00  0.00    +0.000 C 
ATOM     11  C13 UNL     1      -2.000   2.466  -1.498  0.00  0.00    +0.000 C 
ATOM     12  C14 UNL     1      -1.390   1.221  -1.469  0.00  0.00    +0.000 C 
ATOM     13  F2  UNL     1      -0.574   0.888  -2.480  0.00  0.00    +0.000 F 
ENDBRANCH   6   7
BRANCH   1  15
ATOM     14  O1  UNL     1       1.109  -0.541   1.972  0.00  0.00    +0.000 OA
ATOM     15  C1  UNL     1       1.146  -0.168   0.805  0.00  0.00    +0.000 C 
BRANCH  15  16
ATOM     16  C2  UNL     1       1.691   1.177   0.477  0.00  0.00    +0.000 C 
ATOM     17  C3  UNL     1       2.848   1.340  -0.479  0.00  0.00    +0.000 C 
ATOM     18  C4  UNL     1       3.060   1.565   0.988  0.00  0.00    +0.000 C 
ENDBRANCH  15  16
ENDBRANCH   1  15
TORSDOF 3
