REMARK  Name = ligantes_elite\Elite_164.pdb
REMARK  7 active torsions:
REMARK  status: ('A' for Active; 'I' for Inactive)
REMARK    1  A    between atoms: C1_1  and  C2_2
REMARK    2  A    between atoms: C2_2  and  C3_3
REMARK    3  A    between atoms: C3_3  and  C4_4
REMARK    4  A    between atoms: C4_4  and  C5_6
REMARK    5  A    between atoms: C6_7  and  O2_8
REMARK    6  A    between atoms: C9_11  and  C10_12
REMARK    7  A    between atoms: C14_17  and  N2_18
REMARK                            x       y       z     vdW  Elec       q    Type
REMARK                         _______ _______ _______ _____ _____    ______ ____
ROOT
ATOM      1  C5  UNL     1       0.537   0.142  -0.625  0.00  0.00    +0.000 C 
ATOM      2  C6  UNL     1       0.615  -1.343  -1.008  0.00  0.00    +0.000 C 
ATOM      3  C7  UNL     1      -0.488  -1.570  -2.043  0.00  0.00    +0.000 C 
ATOM      4  C8  UNL     1      -0.976  -0.178  -2.423  0.00  0.00    +0.000 C 
ATOM      5  C9  UNL     1      -0.838   0.639  -1.121  0.00  0.00    +0.000 C 
ENDROOT
BRANCH   5   6
ATOM      6  C10 UNL     1      -2.147   0.582  -0.346  0.00  0.00    +0.000 C 
ATOM      7  C11 UNL     1      -3.169   1.415  -0.843  0.00  0.00    +0.000 C 
ATOM      8  N1  UNL     1      -4.413   1.550  -0.332  0.00  0.00    +0.000 NA
ATOM      9  C12 UNL     1      -4.672   0.834   0.771  0.00  0.00    +0.000 C 
ATOM     10  C13 UNL     1      -3.752  -0.015   1.355  0.00  0.00    +0.000 C 
ATOM     11  C14 UNL     1      -2.490  -0.191   0.769  0.00  0.00    +0.000 C 
BRANCH  11  12
ATOM     12  N2  UNL     1      -1.586  -0.966   1.515  0.00  0.00    +0.000 N 
ATOM     13  H   UNL     1      -0.680  -1.134   1.169  0.00  0.00    +0.000 HD
ATOM     14  H   UNL     1      -1.859  -1.341   2.383  0.00  0.00    +0.000 HD
ENDBRANCH  11  12
ENDBRANCH   5   6
BRANCH   1  15
ATOM     15  C4  UNL     1       0.977   0.530   0.779  0.00  0.00    +0.000 C 
ATOM     16  O1  UNL     1       0.319   1.294   1.487  0.00  0.00    +0.000 OA
BRANCH  15  17
ATOM     17  C3  UNL     1       2.339   0.054   1.252  0.00  0.00    +0.000 C 
BRANCH  17  19
ATOM     18  C1  UNL     1       4.791   0.610   1.342  0.00  0.00    +0.000 C 
ATOM     19  C2  UNL     1       3.425   1.035   0.828  0.00  0.00    +0.000 C 
ENDBRANCH  17  19
ENDBRANCH  15  17
ENDBRANCH   1  15
BRANCH   2  20
ATOM     20  O2  UNL     1       0.408  -2.193   0.109  0.00  0.00    +0.000 OA
ATOM     21  H   UNL     1      -0.466  -2.018   0.491  0.00  0.00    +0.000 HD
ENDBRANCH   2  20
TORSDOF 6
