REMARK  Name = ligantes_elite\Elite_020.pdb
REMARK  5 active torsions:
REMARK  status: ('A' for Active; 'I' for Inactive)
REMARK    1  A    between atoms: C1_1  and  C2_2
REMARK    2  A    between atoms: C5_5  and  C6_6
REMARK    3  A    between atoms: C10_11  and  C11_12
REMARK    4  A    between atoms: C12_14  and  C13_15
REMARK    5  A    between atoms: C13_15  and  C14_17
REMARK                            x       y       z     vdW  Elec       q    Type
REMARK                         _______ _______ _______ _____ _____    ______ ____
ROOT
ATOM      1  C1  UNL     1       2.440   2.178   1.648  0.00  0.00    +0.000 C 
ATOM      2  C2  UNL     1       1.681   0.859   1.746  0.00  0.00    +0.000 C 
ATOM      3  C3  UNL     1       0.565   0.922   2.798  0.00  0.00    +0.000 C 
ATOM      4  C4  UNL     1      -0.537   0.040   2.231  0.00  0.00    +0.000 C 
ATOM      5  C5  UNL     1      -0.520   0.409   0.741  0.00  0.00    +0.000 C 
ATOM      6  C12 UNL     1       0.989   0.474   0.411  0.00  0.00    +0.000 C 
ENDROOT
BRANCH   5   7
ATOM      7  C6  UNL     1      -1.374  -0.417  -0.198  0.00  0.00    +0.000 C 
ATOM      8  C7  UNL     1      -1.689  -1.749   0.085  0.00  0.00    +0.000 C 
ATOM      9  N1  UNL     1      -2.409  -2.563  -0.720  0.00  0.00    +0.000 NA
ATOM     10  C8  UNL     1      -2.859  -2.034  -1.871  0.00  0.00    +0.000 C 
ATOM     11  C9  UNL     1      -2.612  -0.730  -2.259  0.00  0.00    +0.000 C 
ATOM     12  C10 UNL     1      -1.855   0.101  -1.420  0.00  0.00    +0.000 C 
BRANCH  12  13
ATOM     13  C11 UNL     1      -1.592   1.519  -1.864  0.00  0.00    +0.000 C 
ATOM     14  F1  UNL     1      -2.120   2.441  -1.012  0.00  0.00    +0.000 F 
ENDBRANCH  12  13
ENDBRANCH   5   7
BRANCH   6  15
ATOM     15  C13 UNL     1       1.513  -0.861  -0.101  0.00  0.00    +0.000 C 
ATOM     16  O1  UNL     1       1.791  -1.821   0.613  0.00  0.00    +0.000 OA
BRANCH  15  17
ATOM     17  C14 UNL     1       1.631  -1.021  -1.625  0.00  0.00    +0.000 C 
ATOM     18  N2  UNL     1       1.970  -2.281  -2.032  0.00  0.00    +0.000 N 
ATOM     19  O2  UNL     1       1.426  -0.093  -2.389  0.00  0.00    +0.000 OA
ATOM     20  H   UNL     1       2.123  -2.989  -1.365  0.00  0.00    +0.000 HD
ATOM     21  H   UNL     1       2.061  -2.480  -2.992  0.00  0.00    +0.000 HD
ENDBRANCH  15  17
ENDBRANCH   6  15
TORSDOF 4
