REMARK  Name = ligantes_elite\Elite_033.pdb
REMARK  6 active torsions:
REMARK  status: ('A' for Active; 'I' for Inactive)
REMARK    1  A    between atoms: C1_1  and  C2_2
REMARK    2  A    between atoms: C2_2  and  C3_3
REMARK    3  A    between atoms: C2_2  and  C4_4
REMARK    4  A    between atoms: C4_4  and  C5_6
REMARK    5  A    between atoms: C6_7  and  C7_8
REMARK    6  A    between atoms: C10_11  and  C11_12
REMARK                            x       y       z     vdW  Elec       q    Type
REMARK                         _______ _______ _______ _____ _____    ______ ____
ROOT
ATOM      1  C5  UNL     1       0.289  -0.933   0.262  0.00  0.00    +0.000 C 
ATOM      2  C6  UNL     1       0.398  -2.404  -0.186  0.00  0.00    +0.000 C 
ATOM      3  C7  UNL     1       1.539  -2.738  -1.136  0.00  0.00    +0.000 C 
ATOM      4  C8  UNL     1      -0.983  -2.777  -0.748  0.00  0.00    +0.000 C 
ATOM      5  C9  UNL     1      -1.915  -1.607  -0.423  0.00  0.00    +0.000 C 
ATOM      6  C10 UNL     1      -1.200  -0.820   0.678  0.00  0.00    +0.000 C 
ENDROOT
BRANCH   6   7
ATOM      7  C11 UNL     1      -1.616   0.554   1.168  0.00  0.00    +0.000 C 
ATOM      8  C12 UNL     1      -1.004   0.955   2.369  0.00  0.00    +0.000 C 
ATOM      9  N1  UNL     1      -1.173   2.137   3.003  0.00  0.00    +0.000 NA
ATOM     10  C13 UNL     1      -2.025   3.000   2.435  0.00  0.00    +0.000 C 
ATOM     11  C14 UNL     1      -2.714   2.720   1.273  0.00  0.00    +0.000 C 
ATOM     12  C15 UNL     1      -2.517   1.484   0.635  0.00  0.00    +0.000 C 
ATOM     13  I1  UNL     1      -3.705   1.249  -1.075  0.00  0.00    +0.000 I 
ENDBRANCH   6   7
BRANCH   1  14
ATOM     14  C4  UNL     1       0.702   0.066  -0.828  0.00  0.00    +0.000 C 
ATOM     15  O1  UNL     1      -0.008   0.294  -1.806  0.00  0.00    +0.000 OA
BRANCH  14  17
ATOM     16  C1  UNL     1       1.933   1.937   0.286  0.00  0.00    +0.000 C 
ATOM     17  C2  UNL     1       2.061   0.748  -0.657  0.00  0.00    +0.000 C 
ATOM     18  C3  UNL     1       2.621   1.186  -2.008  0.00  0.00    +0.000 C 
ENDBRANCH  14  17
ENDBRANCH   1  14
TORSDOF 3
