REMARK  Name = ligantes_elite\Elite_021.pdb
REMARK  5 active torsions:
REMARK  status: ('A' for Active; 'I' for Inactive)
REMARK    1  A    between atoms: C1_1  and  C2_2
REMARK    2  A    between atoms: C2_2  and  C3_3
REMARK    3  A    between atoms: C3_3  and  C4_5
REMARK    4  A    between atoms: C8_10  and  C9_11
REMARK    5  A    between atoms: C13_16  and  C14_17
REMARK                            x       y       z     vdW  Elec       q    Type
REMARK                         _______ _______ _______ _____ _____    ______ ____
ROOT
ATOM      1  C4  UNL     1       1.025  -0.915   0.380  0.00  0.00    +0.000 C 
ATOM      2  C5  UNL     1       1.444  -2.366   0.564  0.00  0.00    +0.000 C 
ATOM      3  F1  UNL     1       1.245  -2.692   1.875  0.00  0.00    +0.000 F 
ATOM      4  C6  UNL     1       0.483  -3.201  -0.276  0.00  0.00    +0.000 C 
ATOM      5  C7  UNL     1      -0.737  -2.314  -0.546  0.00  0.00    +0.000 C 
ATOM      6  C8  UNL     1      -0.503  -1.027   0.265  0.00  0.00    +0.000 C 
ENDROOT
BRANCH   6   7
ATOM      7  C9  UNL     1      -1.227   0.225  -0.185  0.00  0.00    +0.000 C 
ATOM      8  C10 UNL     1      -1.389   0.525  -1.540  0.00  0.00    +0.000 C 
ATOM      9  N1  UNL     1      -2.012   1.625  -2.020  0.00  0.00    +0.000 NA
ATOM     10  C11 UNL     1      -2.503   2.492  -1.119  0.00  0.00    +0.000 C 
ATOM     11  C12 UNL     1      -2.395   2.310   0.246  0.00  0.00    +0.000 C 
ATOM     12  C13 UNL     1      -1.744   1.167   0.735  0.00  0.00    +0.000 C 
BRANCH  12  13
ATOM     13  C14 UNL     1      -1.637   0.989   2.232  0.00  0.00    +0.000 C 
ATOM     14  F2  UNL     1      -0.357   0.762   2.639  0.00  0.00    +0.000 F 
ATOM     15  F3  UNL     1      -2.051   2.080   2.938  0.00  0.00    +0.000 F 
ENDBRANCH  12  13
ENDBRANCH   6   7
BRANCH   1  16
ATOM     16  C3  UNL     1       1.735  -0.340  -0.834  0.00  0.00    +0.000 C 
ATOM     17  O1  UNL     1       1.577  -0.815  -1.960  0.00  0.00    +0.000 OA
BRANCH  16  19
ATOM     18  C1  UNL     1       1.941   2.112  -0.334  0.00  0.00    +0.000 C 
ATOM     19  C2  UNL     1       2.683   0.820  -0.607  0.00  0.00    +0.000 C 
ENDBRANCH  16  19
ENDBRANCH   1  16
TORSDOF 4
