REMARK  Name = ligantes_elite\Elite_036.pdb
REMARK  6 active torsions:
REMARK  status: ('A' for Active; 'I' for Inactive)
REMARK    1  A    between atoms: C1_1  and  C2_2
REMARK    2  A    between atoms: C2_2  and  C3_3
REMARK    3  A    between atoms: C3_3  and  C4_5
REMARK    4  A    between atoms: C5_6  and  C6_7
REMARK    5  A    between atoms: C9_10  and  C10_11
REMARK    6  A    between atoms: C14_16  and  N2_17
REMARK                            x       y       z     vdW  Elec       q    Type
REMARK                         _______ _______ _______ _____ _____    ______ ____
ROOT
ATOM      1  C4  UNL     1      -0.717   0.152  -0.275  0.00  0.00    +0.000 C 
ATOM      2  C5  UNL     1      -1.507   1.371   0.259  0.00  0.00    +0.000 C 
ATOM      3  C6  UNL     1      -2.072   2.232  -0.864  0.00  0.00    +0.000 C 
ATOM      4  C7  UNL     1      -0.511   2.138   1.126  0.00  0.00    +0.000 C 
ATOM      5  C8  UNL     1       0.358   1.041   1.723  0.00  0.00    +0.000 C 
ATOM      6  C9  UNL     1       0.584   0.046   0.568  0.00  0.00    +0.000 C 
ENDROOT
BRANCH   6   7
ATOM      7  C10 UNL     1       1.833   0.246  -0.284  0.00  0.00    +0.000 C 
ATOM      8  C11 UNL     1       2.591   1.421  -0.229  0.00  0.00    +0.000 C 
ATOM      9  N1  UNL     1       3.745   1.641  -0.902  0.00  0.00    +0.000 NA
ATOM     10  C12 UNL     1       4.205   0.621  -1.650  0.00  0.00    +0.000 C 
ATOM     11  C13 UNL     1       3.537  -0.580  -1.790  0.00  0.00    +0.000 C 
ATOM     12  C14 UNL     1       2.301  -0.751  -1.160  0.00  0.00    +0.000 C 
BRANCH  12  13
ATOM     13  N2  UNL     1       1.710  -2.021  -1.274  0.00  0.00    +0.000 N 
ATOM     14  H   UNL     1       0.839  -2.199  -0.850  0.00  0.00    +0.000 HD
ATOM     15  H   UNL     1       2.167  -2.733  -1.778  0.00  0.00    +0.000 HD
ENDBRANCH  12  13
ENDBRANCH   6   7
BRANCH   1  16
ATOM     16  C3  UNL     1      -1.453  -1.189  -0.212  0.00  0.00    +0.000 C 
ATOM     17  O1  UNL     1      -1.224  -2.037  -1.082  0.00  0.00    +0.000 OA
BRANCH  16  19
ATOM     18  C1  UNL     1      -2.810  -2.954   0.989  0.00  0.00    +0.000 C 
ATOM     19  C2  UNL     1      -2.341  -1.506   0.985  0.00  0.00    +0.000 C 
ENDBRANCH  16  19
ENDBRANCH   1  16
TORSDOF 4
