REMARK  Name = ligantes_elite\Elite_045.pdb
REMARK  5 active torsions:
REMARK  status: ('A' for Active; 'I' for Inactive)
REMARK    1  A    between atoms: C1_1  and  O1_2
REMARK    2  A    between atoms: O1_2  and  C2_3
REMARK    3  A    between atoms: C2_3  and  C3_5
REMARK    4  A    between atoms: C7_10  and  C8_11
REMARK    5  A    between atoms: C12_16  and  C13_17
REMARK                            x       y       z     vdW  Elec       q    Type
REMARK                         _______ _______ _______ _____ _____    ______ ____
ROOT
ATOM      1  C3  UNL     1       1.244  -0.455   0.861  0.00  0.00    +0.000 C 
ATOM      2  C4  UNL     1       1.914  -1.814   0.793  0.00  0.00    +0.000 C 
ATOM      3  F1  UNL     1       1.586  -2.506   1.922  0.00  0.00    +0.000 F 
ATOM      4  C5  UNL     1       1.279  -2.516  -0.397  0.00  0.00    +0.000 C 
ATOM      5  C6  UNL     1      -0.069  -1.823  -0.623  0.00  0.00    +0.000 C 
ATOM      6  C7  UNL     1      -0.226  -0.768   0.494  0.00  0.00    +0.000 C 
ENDROOT
BRANCH   6   7
ATOM      7  C8  UNL     1      -1.167   0.401   0.226  0.00  0.00    +0.000 C 
ATOM      8  C9  UNL     1      -0.830   1.694   0.651  0.00  0.00    +0.000 C 
ATOM      9  N1  UNL     1      -1.571   2.810   0.462  0.00  0.00    +0.000 NA
ATOM     10  C10 UNL     1      -2.748   2.652  -0.161  0.00  0.00    +0.000 C 
ATOM     11  C11 UNL     1      -3.225   1.423  -0.572  0.00  0.00    +0.000 C 
ATOM     12  C12 UNL     1      -2.448   0.269  -0.354  0.00  0.00    +0.000 C 
BRANCH  12  13
ATOM     13  C13 UNL     1      -3.063  -1.051  -0.741  0.00  0.00    +0.000 C 
ATOM     14  F2  UNL     1      -2.952  -1.994   0.236  0.00  0.00    +0.000 F 
ENDBRANCH  12  13
ENDBRANCH   6   7
BRANCH   1  15
ATOM     15  C2  UNL     1       1.971   0.463  -0.100  0.00  0.00    +0.000 C 
ATOM     16  O2  UNL     1       1.941   0.376  -1.319  0.00  0.00    +0.000 OA
BRANCH  15  18
ATOM     17  C1  UNL     1       3.390   2.324  -0.224  0.00  0.00    +0.000 C 
ATOM     18  O1  UNL     1       2.686   1.390   0.597  0.00  0.00    +0.000 OA
ENDBRANCH  15  18
ENDBRANCH   1  15
TORSDOF 4
