REMARK  Name = ligantes_elite\Elite_145.pdb
REMARK  4 active torsions:
REMARK  status: ('A' for Active; 'I' for Inactive)
REMARK    1  A    between atoms: C1_2  and  C2_4
REMARK    2  A    between atoms: C2_4  and  C3_6
REMARK    3  A    between atoms: C4_7  and  C5_8
REMARK    4  A    between atoms: C8_12  and  C9_13
REMARK                            x       y       z     vdW  Elec       q    Type
REMARK                         _______ _______ _______ _____ _____    ______ ____
ROOT
ATOM      1  C3  UNL     1      -0.752  -0.246   0.248  0.00  0.00    +0.000 C 
ATOM      2  C4  UNL     1      -1.008  -1.469   1.154  0.00  0.00    +0.000 C 
ATOM      3  C6  UNL     1      -0.111  -2.560   0.584  0.00  0.00    +0.000 C 
ATOM      4  C7  UNL     1       1.170  -1.801   0.267  0.00  0.00    +0.000 C 
ATOM      5  C8  UNL     1       0.694  -0.438  -0.283  0.00  0.00    +0.000 C 
ENDROOT
BRANCH   5   6
ATOM      6  C9  UNL     1       1.615   0.712   0.063  0.00  0.00    +0.000 C 
ATOM      7  C10 UNL     1       1.917   0.994   1.397  0.00  0.00    +0.000 C 
ATOM      8  N2  UNL     1       2.720   1.997   1.820  0.00  0.00    +0.000 NA
ATOM      9  C11 UNL     1       3.250   2.790   0.871  0.00  0.00    +0.000 C 
ATOM     10  C12 UNL     1       3.018   2.621  -0.479  0.00  0.00    +0.000 C 
ATOM     11  C13 UNL     1       2.191   1.572  -0.883  0.00  0.00    +0.000 C 
ATOM     12 BR1  UNL     1       1.901   1.400  -2.754  0.00  0.00    +0.000 Br
ENDBRANCH   5   6
BRANCH   1  13
ATOM     13  C2  UNL     1      -1.688  -0.140  -0.945  0.00  0.00    +0.000 C 
ATOM     14  O2  UNL     1      -2.145  -1.100  -1.558  0.00  0.00    +0.000 OA
BRANCH  13  16
ATOM     15  N1  UNL     1      -2.900   1.318  -2.479  0.00  0.00    +0.000 N 
ATOM     16  C1  UNL     1      -2.001   1.275  -1.450  0.00  0.00    +0.000 C 
ATOM     17  O1  UNL     1      -1.473   2.261  -0.969  0.00  0.00    +0.000 OA
ATOM     18  H   UNL     1      -3.162   2.184  -2.868  0.00  0.00    +0.000 HD
ATOM     19  H   UNL     1      -3.286   0.483  -2.831  0.00  0.00    +0.000 HD
ENDBRANCH  13  16
ENDBRANCH   1  13
BRANCH   2  20
ATOM     20  C5  UNL     1      -2.456  -1.888   1.331  0.00  0.00    +0.000 C 
ATOM     21  F1  UNL     1      -3.171  -0.799   1.721  0.00  0.00    +0.000 F 
ENDBRANCH   2  20
TORSDOF 4
