REMARK  Name = ligantes_elite\Elite_152.pdb
REMARK  5 active torsions:
REMARK  status: ('A' for Active; 'I' for Inactive)
REMARK    1  A    between atoms: C1_1  and  C2_2
REMARK    2  A    between atoms: C2_2  and  C3_3
REMARK    3  A    between atoms: C3_3  and  C4_4
REMARK    4  A    between atoms: C4_4  and  C5_6
REMARK    5  A    between atoms: C9_11  and  C10_12
REMARK                            x       y       z     vdW  Elec       q    Type
REMARK                         _______ _______ _______ _____ _____    ______ ____
ROOT
ATOM      1  C5  UNL     1       0.263   0.261  -1.571  0.00  0.00    +0.000 C 
ATOM      2  C6  UNL     1       0.231   1.076  -2.859  0.00  0.00    +0.000 C 
ATOM      3  F1  UNL     1       0.215   0.195  -3.903  0.00  0.00    +0.000 F 
ATOM      4  C7  UNL     1      -1.093   1.839  -2.873  0.00  0.00    +0.000 C 
ATOM      5  C8  UNL     1      -1.889   1.339  -1.667  0.00  0.00    +0.000 C 
ATOM      6  C9  UNL     1      -1.226   0.006  -1.284  0.00  0.00    +0.000 C 
ENDROOT
BRANCH   6   7
ATOM      7  C10 UNL     1      -1.528  -0.575   0.079  0.00  0.00    +0.000 C 
ATOM      8  C11 UNL     1      -1.890   0.229   1.159  0.00  0.00    +0.000 C 
ATOM      9  N1  UNL     1      -2.150  -0.223   2.409  0.00  0.00    +0.000 NA
ATOM     10  C12 UNL     1      -2.053  -1.547   2.618  0.00  0.00    +0.000 C 
ATOM     11  C13 UNL     1      -1.695  -2.444   1.635  0.00  0.00    +0.000 C 
ATOM     12  C14 UNL     1      -1.427  -1.949   0.359  0.00  0.00    +0.000 C 
ATOM     13 BR1  UNL     1      -0.907  -3.229  -0.949  0.00  0.00    +0.000 Br
ENDBRANCH   6   7
BRANCH   1  14
ATOM     14  C4  UNL     1       0.973   1.042  -0.475  0.00  0.00    +0.000 C 
ATOM     15  O1  UNL     1       0.800   2.253  -0.337  0.00  0.00    +0.000 OA
BRANCH  14  16
ATOM     16  C3  UNL     1       1.909   0.248   0.424  0.00  0.00    +0.000 C 
BRANCH  16  18
ATOM     17  C1  UNL     1       3.222   0.206   2.571  0.00  0.00    +0.000 C 
ATOM     18  C2  UNL     1       2.327   1.033   1.663  0.00  0.00    +0.000 C 
ENDBRANCH  16  18
ENDBRANCH  14  16
ENDBRANCH   1  14
TORSDOF 4
