REMARK  Name = ligantes_elite\Elite_138.pdb
REMARK  6 active torsions:
REMARK  status: ('A' for Active; 'I' for Inactive)
REMARK    1  A    between atoms: C1_1  and  O1_2
REMARK    2  A    between atoms: O1_2  and  C2_3
REMARK    3  A    between atoms: C2_3  and  C3_5
REMARK    4  A    between atoms: C4_6  and  O3_7
REMARK    5  A    between atoms: C7_10  and  C8_11
REMARK    6  A    between atoms: C12_16  and  N2_17
REMARK                            x       y       z     vdW  Elec       q    Type
REMARK                         _______ _______ _______ _____ _____    ______ ____
ROOT
ATOM      1  C3  UNL     1       1.253  -0.314   0.221  0.00  0.00    +0.000 C 
ATOM      2  C4  UNL     1       1.944  -1.680   0.127  0.00  0.00    +0.000 C 
ATOM      3  C5  UNL     1       0.881  -2.697   0.527  0.00  0.00    +0.000 C 
ATOM      4  C6  UNL     1      -0.394  -2.116  -0.066  0.00  0.00    +0.000 C 
ATOM      5  C7  UNL     1      -0.269  -0.606   0.193  0.00  0.00    +0.000 C 
ENDROOT
BRANCH   5   6
ATOM      6  C8  UNL     1      -1.050   0.215  -0.812  0.00  0.00    +0.000 C 
ATOM      7  C9  UNL     1      -0.633   0.264  -2.149  0.00  0.00    +0.000 C 
ATOM      8  N1  UNL     1      -1.221   0.998  -3.119  0.00  0.00    +0.000 NA
ATOM      9  C10 UNL     1      -2.270   1.749  -2.743  0.00  0.00    +0.000 C 
ATOM     10  C11 UNL     1      -2.777   1.767  -1.456  0.00  0.00    +0.000 C 
ATOM     11  C12 UNL     1      -2.204   0.944  -0.482  0.00  0.00    +0.000 C 
BRANCH  11  12
ATOM     12  N2  UNL     1      -2.684   1.041   0.836  0.00  0.00    +0.000 N 
ATOM     13  H   UNL     1      -2.299   0.474   1.543  0.00  0.00    +0.000 HD
ATOM     14  H   UNL     1      -3.405   1.676   1.052  0.00  0.00    +0.000 HD
ENDBRANCH  11  12
ENDBRANCH   5   6
BRANCH   1  15
ATOM     15  C2  UNL     1       1.611   0.364   1.524  0.00  0.00    +0.000 C 
ATOM     16  O2  UNL     1       1.854  -0.223   2.571  0.00  0.00    +0.000 OA
BRANCH  15  18
ATOM     17  C1  UNL     1       1.864   2.446   2.569  0.00  0.00    +0.000 C 
ATOM     18  O1  UNL     1       1.584   1.716   1.374  0.00  0.00    +0.000 OA
ENDBRANCH  15  18
ENDBRANCH   1  15
BRANCH   2  19
ATOM     19  O3  UNL     1       2.324  -1.905  -1.232  0.00  0.00    +0.000 OA
ATOM     20  H   UNL     1       1.540  -1.848  -1.801  0.00  0.00    +0.000 HD
ENDBRANCH   2  19
TORSDOF 5
