REMARK  Name = ligantes_elite\Elite_032.pdb
REMARK  5 active torsions:
REMARK  status: ('A' for Active; 'I' for Inactive)
REMARK    1  A    between atoms: C1_1  and  O1_2
REMARK    2  A    between atoms: O1_2  and  C2_3
REMARK    3  A    between atoms: C2_3  and  C3_5
REMARK    4  A    between atoms: C7_10  and  C8_11
REMARK    5  A    between atoms: C12_16  and  C13_17
REMARK                            x       y       z     vdW  Elec       q    Type
REMARK                         _______ _______ _______ _____ _____    ______ ____
ROOT
ATOM      1  C3  UNL     1      -1.258  -0.409  -0.093  0.00  0.00    +0.000 C 
ATOM      2  C4  UNL     1      -1.874  -1.790  -0.288  0.00  0.00    +0.000 C 
ATOM      3  F1  UNL     1      -1.826  -2.078  -1.623  0.00  0.00    +0.000 F 
ATOM      4  C5  UNL     1      -0.937  -2.749   0.426  0.00  0.00    +0.000 C 
ATOM      5  C6  UNL     1       0.435  -2.191   0.077  0.00  0.00    +0.000 C 
ATOM      6  C7  UNL     1       0.248  -0.664   0.156  0.00  0.00    +0.000 C 
ENDROOT
BRANCH   6   7
ATOM      7  C8  UNL     1       1.145   0.113  -0.788  0.00  0.00    +0.000 C 
ATOM      8  C9  UNL     1       1.125  -0.141  -2.160  0.00  0.00    +0.000 C 
ATOM      9  N1  UNL     1       1.881   0.510  -3.072  0.00  0.00    +0.000 NA
ATOM     10  C10 UNL     1       2.702   1.474  -2.619  0.00  0.00    +0.000 C 
ATOM     11  C11 UNL     1       2.798   1.824  -1.287  0.00  0.00    +0.000 C 
ATOM     12  C12 UNL     1       2.007   1.139  -0.359  0.00  0.00    +0.000 C 
BRANCH  12  13
ATOM     13  C13 UNL     1       2.103   1.529   1.019  0.00  0.00    +0.000 C 
ATOM     14  N2  UNL     1       2.176   1.844   2.134  0.00  0.00    +0.000 NA
ENDBRANCH  12  13
ENDBRANCH   6   7
BRANCH   1  15
ATOM     15  C2  UNL     1      -1.866   0.289   1.100  0.00  0.00    +0.000 C 
ATOM     16  O2  UNL     1      -2.614  -0.231   1.914  0.00  0.00    +0.000 OA
BRANCH  15  18
ATOM     17  C1  UNL     1      -1.904   2.321   2.268  0.00  0.00    +0.000 C 
ATOM     18  O1  UNL     1      -1.437   1.581   1.139  0.00  0.00    +0.000 OA
ENDBRANCH  15  18
ENDBRANCH   1  15
TORSDOF 4
