REMARK  Name = ligantes_elite\Elite_182.pdb
REMARK  6 active torsions:
REMARK  status: ('A' for Active; 'I' for Inactive)
REMARK    1  A    between atoms: C1_1  and  C2_2
REMARK    2  A    between atoms: C2_2  and  C3_3
REMARK    3  A    between atoms: C3_3  and  C4_5
REMARK    4  A    between atoms: C5_6  and  C6_7
REMARK    5  A    between atoms: C9_10  and  C10_11
REMARK    6  A    between atoms: C14_16  and  C15_17
REMARK                            x       y       z     vdW  Elec       q    Type
REMARK                         _______ _______ _______ _____ _____    ______ ____
ROOT
ATOM      1  C4  UNL     1       0.773  -0.363  -0.331  0.00  0.00    +0.000 C 
ATOM      2  C5  UNL     1       1.450  -1.298  -1.348  0.00  0.00    +0.000 C 
ATOM      3  C6  UNL     1       2.630  -2.105  -0.829  0.00  0.00    +0.000 C 
ATOM      4  C7  UNL     1       0.314  -2.162  -1.910  0.00  0.00    +0.000 C 
ATOM      5  C8  UNL     1      -0.981  -1.371  -1.679  0.00  0.00    +0.000 C 
ATOM      6  C9  UNL     1      -0.548  -0.032  -1.051  0.00  0.00    +0.000 C 
ENDROOT
BRANCH   6   7
ATOM      7  C10 UNL     1      -1.564   0.733  -0.231  0.00  0.00    +0.000 C 
ATOM      8  C11 UNL     1      -2.483   0.073   0.590  0.00  0.00    +0.000 C 
ATOM      9  N1  UNL     1      -3.403   0.684   1.371  0.00  0.00    +0.000 NA
ATOM     10  C12 UNL     1      -3.431   2.027   1.341  0.00  0.00    +0.000 C 
ATOM     11  C13 UNL     1      -2.567   2.790   0.577  0.00  0.00    +0.000 C 
ATOM     12  C14 UNL     1      -1.607   2.145  -0.218  0.00  0.00    +0.000 C 
BRANCH  12  13
ATOM     13  C15 UNL     1      -0.666   2.995  -1.034  0.00  0.00    +0.000 C 
ATOM     14  F1  UNL     1      -0.812   2.810  -2.374  0.00  0.00    +0.000 F 
ENDBRANCH  12  13
ENDBRANCH   6   7
BRANCH   1  15
ATOM     15  C3  UNL     1       0.551  -0.999   1.044  0.00  0.00    +0.000 C 
ATOM     16  O1  UNL     1       0.076  -2.127   1.177  0.00  0.00    +0.000 OA
BRANCH  15  18
ATOM     17  C1  UNL     1       2.425  -0.231   2.504  0.00  0.00    +0.000 C 
ATOM     18  C2  UNL     1       0.931  -0.173   2.256  0.00  0.00    +0.000 C 
ENDBRANCH  15  18
ENDBRANCH   1  15
TORSDOF 4
