REMARK  Name = ligantes_elite\Elite_012.pdb
REMARK  7 active torsions:
REMARK  status: ('A' for Active; 'I' for Inactive)
REMARK    1  A    between atoms: C1_1  and  C2_2
REMARK    2  A    between atoms: C2_2  and  C3_3
REMARK    3  A    between atoms: C2_2  and  C4_4
REMARK    4  A    between atoms: C4_4  and  C5_6
REMARK    5  A    between atoms: C6_7  and  O2_8
REMARK    6  A    between atoms: C9_11  and  C10_12
REMARK    7  A    between atoms: C14_17  and  C15_18
REMARK                            x       y       z     vdW  Elec       q    Type
REMARK                         _______ _______ _______ _____ _____    ______ ____
ROOT
ATOM      1  C5  UNL     1       0.476  -0.050  -0.548  0.00  0.00    +0.000 C 
ATOM      2  C6  UNL     1       0.609  -0.360  -2.038  0.00  0.00    +0.000 C 
ATOM      3  C7  UNL     1       0.119  -1.794  -2.218  0.00  0.00    +0.000 C 
ATOM      4  C8  UNL     1      -0.770  -2.099  -1.012  0.00  0.00    +0.000 C 
ATOM      5  C9  UNL     1      -0.768  -0.847  -0.109  0.00  0.00    +0.000 C 
ENDROOT
BRANCH   5   6
ATOM      6  C10 UNL     1      -2.034  -0.003  -0.175  0.00  0.00    +0.000 C 
ATOM      7  C11 UNL     1      -2.753   0.150  -1.364  0.00  0.00    +0.000 C 
ATOM      8  N1  UNL     1      -3.876   0.891  -1.503  0.00  0.00    +0.000 NA
ATOM      9  C12 UNL     1      -4.323   1.525  -0.406  0.00  0.00    +0.000 C 
ATOM     10  C13 UNL     1      -3.695   1.455   0.825  0.00  0.00    +0.000 C 
ATOM     11  C14 UNL     1      -2.526   0.690   0.953  0.00  0.00    +0.000 C 
BRANCH  11  12
ATOM     12  C15 UNL     1      -1.867   0.611   2.306  0.00  0.00    +0.000 C 
ATOM     13  F1  UNL     1      -0.518   0.791   2.250  0.00  0.00    +0.000 F 
ENDBRANCH  11  12
ENDBRANCH   5   6
BRANCH   1  14
ATOM     14  C4  UNL     1       1.707  -0.494   0.235  0.00  0.00    +0.000 C 
ATOM     15  O1  UNL     1       2.116  -1.656   0.169  0.00  0.00    +0.000 OA
BRANCH  14  17
ATOM     16  C1  UNL     1       3.207  -0.064   2.207  0.00  0.00    +0.000 C 
ATOM     17  C2  UNL     1       2.439   0.570   1.050  0.00  0.00    +0.000 C 
ATOM     18  C3  UNL     1       3.374   1.359   0.142  0.00  0.00    +0.000 C 
ENDBRANCH  14  17
ENDBRANCH   1  14
BRANCH   2  19
ATOM     19  O2  UNL     1       1.919  -0.172  -2.545  0.00  0.00    +0.000 OA
ATOM     20  H   UNL     1       2.533  -0.763  -2.082  0.00  0.00    +0.000 HD
ENDBRANCH   2  19
TORSDOF 5
