REMARK  Name = ligantes_elite\Elite_054.pdb
REMARK  4 active torsions:
REMARK  status: ('A' for Active; 'I' for Inactive)
REMARK    1  A    between atoms: C1_2  and  C2_3
REMARK    2  A    between atoms: C1_2  and  C5_6
REMARK    3  A    between atoms: C6_7  and  O2_8
REMARK    4  A    between atoms: C9_11  and  C10_12
REMARK                            x       y       z     vdW  Elec       q    Type
REMARK                         _______ _______ _______ _____ _____    ______ ____
ROOT
ATOM      1  C5  UNL     1      -0.385  -0.728   0.493  0.00  0.00    +0.000 C 
ATOM      2  C6  UNL     1      -0.224  -2.096   1.181  0.00  0.00    +0.000 C 
ATOM      3  C7  UNL     1       0.705  -2.895   0.275  0.00  0.00    +0.000 C 
ATOM      4  C8  UNL     1       1.710  -1.851  -0.187  0.00  0.00    +0.000 C 
ATOM      5  C9  UNL     1       0.842  -0.609  -0.444  0.00  0.00    +0.000 C 
ENDROOT
BRANCH   5   6
ATOM      6  C10 UNL     1       1.570   0.719  -0.443  0.00  0.00    +0.000 C 
ATOM      7  C11 UNL     1       1.624   1.405  -1.664  0.00  0.00    +0.000 C 
ATOM      8  N1  UNL     1       2.209   2.606  -1.868  0.00  0.00    +0.000 NA
ATOM      9  C12 UNL     1       2.797   3.180  -0.807  0.00  0.00    +0.000 C 
ATOM     10  C13 UNL     1       2.820   2.605   0.448  0.00  0.00    +0.000 C 
ATOM     11  C14 UNL     1       2.200   1.362   0.633  0.00  0.00    +0.000 C 
ATOM     12  I1  UNL     1       2.321   0.618   2.595  0.00  0.00    +0.000 I 
ENDBRANCH   5   6
BRANCH   1  14
ATOM     13  O1  UNL     1      -2.122  -1.591  -0.953  0.00  0.00    +0.000 OA
ATOM     14  C1  UNL     1      -1.652  -0.641  -0.335  0.00  0.00    +0.000 C 
BRANCH  14  15
ATOM     15  C2  UNL     1      -2.280   0.704  -0.427  0.00  0.00    +0.000 C 
ATOM     16  C3  UNL     1      -3.783   0.838  -0.343  0.00  0.00    +0.000 C 
ATOM     17  C4  UNL     1      -2.928   1.328   0.786  0.00  0.00    +0.000 C 
ENDBRANCH  14  15
ENDBRANCH   1  14
BRANCH   2  18
ATOM     18  O2  UNL     1      -1.435  -2.780   1.442  0.00  0.00    +0.000 OA
ATOM     19  H   UNL     1      -1.892  -2.959   0.605  0.00  0.00    +0.000 HD
ENDBRANCH   2  18
TORSDOF 4
