REMARK  Name = ligantes_elite\Elite_064.pdb
REMARK  6 active torsions:
REMARK  status: ('A' for Active; 'I' for Inactive)
REMARK    1  A    between atoms: C1_1  and  C2_2
REMARK    2  A    between atoms: C2_2  and  C3_3
REMARK    3  A    between atoms: C3_3  and  C4_4
REMARK    4  A    between atoms: C4_4  and  C5_6
REMARK    5  A    between atoms: C9_11  and  C10_12
REMARK    6  A    between atoms: C14_17  and  N2_18
REMARK                            x       y       z     vdW  Elec       q    Type
REMARK                         _______ _______ _______ _____ _____    ______ ____
ROOT
ATOM      1  C5  UNL     1       0.677  -0.974   0.168  0.00  0.00    +0.000 C 
ATOM      2  C6  UNL     1       1.161  -2.338  -0.296  0.00  0.00    +0.000 C 
ATOM      3  F1  UNL     1       2.442  -2.308  -0.715  0.00  0.00    +0.000 F 
ATOM      4  C7  UNL     1       0.217  -2.709  -1.425  0.00  0.00    +0.000 C 
ATOM      5  C8  UNL     1      -1.116  -2.041  -1.058  0.00  0.00    +0.000 C 
ATOM      6  C9  UNL     1      -0.859  -1.189   0.210  0.00  0.00    +0.000 C 
ENDROOT
BRANCH   6   7
ATOM      7  C10 UNL     1      -1.754   0.012   0.491  0.00  0.00    +0.000 C 
ATOM      8  C11 UNL     1      -1.214   1.140   1.131  0.00  0.00    +0.000 C 
ATOM      9  N1  UNL     1      -1.900   2.238   1.531  0.00  0.00    +0.000 NA
ATOM     10  C12 UNL     1      -3.222   2.227   1.307  0.00  0.00    +0.000 C 
ATOM     11  C13 UNL     1      -3.877   1.166   0.715  0.00  0.00    +0.000 C 
ATOM     12  C14 UNL     1      -3.143   0.056   0.268  0.00  0.00    +0.000 C 
BRANCH  12  13
ATOM     13  N2  UNL     1      -3.910  -1.045  -0.153  0.00  0.00    +0.000 N 
ATOM     14  H   UNL     1      -3.464  -1.860  -0.480  0.00  0.00    +0.000 HD
ATOM     15  H   UNL     1      -4.893  -1.001  -0.121  0.00  0.00    +0.000 HD
ENDBRANCH  12  13
ENDBRANCH   6   7
BRANCH   1  16
ATOM     16  C4  UNL     1       1.160   0.090  -0.819  0.00  0.00    +0.000 C 
ATOM     17  O1  UNL     1       0.442   0.516  -1.724  0.00  0.00    +0.000 OA
BRANCH  16  18
ATOM     18  C3  UNL     1       2.588   0.583  -0.658  0.00  0.00    +0.000 C 
BRANCH  18  20
ATOM     19  C1  UNL     1       4.060   2.614  -0.446  0.00  0.00    +0.000 C 
ATOM     20  C2  UNL     1       2.636   2.108  -0.612  0.00  0.00    +0.000 C 
ENDBRANCH  18  20
ENDBRANCH  16  18
ENDBRANCH   1  16
TORSDOF 5
