REMARK  Name = ligantes_elite\Elite_160.pdb
REMARK  5 active torsions:
REMARK  status: ('A' for Active; 'I' for Inactive)
REMARK    1  A    between atoms: C1_2  and  C2_4
REMARK    2  A    between atoms: C2_4  and  C3_6
REMARK    3  A    between atoms: C4_7  and  C5_8
REMARK    4  A    between atoms: C8_12  and  C9_13
REMARK    5  A    between atoms: C13_18  and  C14_19
REMARK                            x       y       z     vdW  Elec       q    Type
REMARK                         _______ _______ _______ _____ _____    ______ ____
ROOT
ATOM      1  C3  UNL     1      -1.397  -0.138   0.162  0.00  0.00    +0.000 C 
ATOM      2  C4  UNL     1      -2.103  -1.442   0.577  0.00  0.00    +0.000 C 
ATOM      3  C6  UNL     1      -1.243  -2.542  -0.041  0.00  0.00    +0.000 C 
ATOM      4  C7  UNL     1       0.172  -2.049   0.220  0.00  0.00    +0.000 C 
ATOM      5  C8  UNL     1       0.103  -0.526  -0.003  0.00  0.00    +0.000 C 
ENDROOT
BRANCH   5   6
ATOM      6  C9  UNL     1       1.041   0.243   0.911  0.00  0.00    +0.000 C 
ATOM      7  C10 UNL     1       0.829   0.243   2.295  0.00  0.00    +0.000 C 
ATOM      8  N2  UNL     1       1.578   0.917   3.192  0.00  0.00    +0.000 NA
ATOM      9  C11 UNL     1       2.598   1.635   2.696  0.00  0.00    +0.000 C 
ATOM     10  C12 UNL     1       2.906   1.698   1.348  0.00  0.00    +0.000 C 
ATOM     11  C13 UNL     1       2.138   0.982   0.414  0.00  0.00    +0.000 C 
BRANCH  11  12
ATOM     12  C14 UNL     1       2.490   1.055  -1.060  0.00  0.00    +0.000 C 
ATOM     13  C15 UNL     1       3.929   0.967  -1.521  0.00  0.00    +0.000 C 
ATOM     14  C16 UNL     1       3.001  -0.180  -1.770  0.00  0.00    +0.000 C 
ENDBRANCH  11  12
ENDBRANCH   5   6
BRANCH   1  15
ATOM     15  C2  UNL     1      -1.931   0.430  -1.146  0.00  0.00    +0.000 C 
ATOM     16  O2  UNL     1      -1.695  -0.032  -2.258  0.00  0.00    +0.000 OA
BRANCH  15  18
ATOM     17  N1  UNL     1      -3.067   2.301  -2.219  0.00  0.00    +0.000 N 
ATOM     18  C1  UNL     1      -2.870   1.635  -1.042  0.00  0.00    +0.000 C 
ATOM     19  O1  UNL     1      -3.403   1.935   0.011  0.00  0.00    +0.000 OA
ATOM     20  H   UNL     1      -3.656   3.089  -2.246  0.00  0.00    +0.000 HD
ATOM     21  H   UNL     1      -2.620   1.993  -3.040  0.00  0.00    +0.000 HD
ENDBRANCH  15  18
ENDBRANCH   1  15
BRANCH   2  22
ATOM     22  C5  UNL     1      -3.574  -1.570   0.215  0.00  0.00    +0.000 C 
ATOM     23  F1  UNL     1      -4.045  -2.738   0.730  0.00  0.00    +0.000 F 
ENDBRANCH   2  22
TORSDOF 5
