REMARK  Name = ligantes_elite\Elite_112.pdb
REMARK  5 active torsions:
REMARK  status: ('A' for Active; 'I' for Inactive)
REMARK    1  A    between atoms: C1_2  and  C2_3
REMARK    2  A    between atoms: C1_2  and  C5_6
REMARK    3  A    between atoms: C6_7  and  C7_8
REMARK    4  A    between atoms: C10_12  and  C11_13
REMARK    5  A    between atoms: C15_18  and  C16_19
REMARK                            x       y       z     vdW  Elec       q    Type
REMARK                         _______ _______ _______ _____ _____    ______ ____
ROOT
ATOM      1  C5  UNL     1       0.513  -0.968  -0.189  0.00  0.00    +0.000 C 
ATOM      2  C6  UNL     1       0.313  -2.498  -0.239  0.00  0.00    +0.000 C 
ATOM      3  C8  UNL     1      -0.846  -2.772   0.713  0.00  0.00    +0.000 C 
ATOM      4  C9  UNL     1      -1.781  -1.603   0.440  0.00  0.00    +0.000 C 
ATOM      5  C10 UNL     1      -0.837  -0.395   0.331  0.00  0.00    +0.000 C 
ENDROOT
BRANCH   5   6
ATOM      6  C11 UNL     1      -1.410   0.729  -0.508  0.00  0.00    +0.000 C 
ATOM      7  C12 UNL     1      -1.579   0.566  -1.886  0.00  0.00    +0.000 C 
ATOM      8  N1  UNL     1      -2.062   1.509  -2.722  0.00  0.00    +0.000 NA
ATOM      9  C13 UNL     1      -2.423   2.682  -2.171  0.00  0.00    +0.000 C 
ATOM     10  C14 UNL     1      -2.317   2.952  -0.818  0.00  0.00    +0.000 C 
ATOM     11  C15 UNL     1      -1.807   1.967   0.041  0.00  0.00    +0.000 C 
BRANCH  11  12
ATOM     12  C16 UNL     1      -1.713   2.271   1.518  0.00  0.00    +0.000 C 
ATOM     13  F2  UNL     1      -2.411   1.382   2.278  0.00  0.00    +0.000 F 
ATOM     14  F3  UNL     1      -2.207   3.499   1.850  0.00  0.00    +0.000 F 
ENDBRANCH  11  12
ENDBRANCH   5   6
BRANCH   1  16
ATOM     15  O1  UNL     1       1.642  -0.771   1.945  0.00  0.00    +0.000 OA
ATOM     16  C1  UNL     1       1.634  -0.536   0.742  0.00  0.00    +0.000 C 
BRANCH  16  17
ATOM     17  C2  UNL     1       2.767   0.189   0.110  0.00  0.00    +0.000 C 
ATOM     18  C3  UNL     1       2.557   1.539  -0.534  0.00  0.00    +0.000 C 
ATOM     19  C4  UNL     1       3.312   1.440   0.758  0.00  0.00    +0.000 C 
ENDBRANCH  16  17
ENDBRANCH   1  16
BRANCH   2  20
ATOM     20  C7  UNL     1       1.542  -3.343   0.044  0.00  0.00    +0.000 C 
ATOM     21  F1  UNL     1       2.524  -2.969  -0.822  0.00  0.00    +0.000 F 
ENDBRANCH   2  20
TORSDOF 5
