REMARK  Name = ligantes_elite\Elite_105.pdb
REMARK  5 active torsions:
REMARK  status: ('A' for Active; 'I' for Inactive)
REMARK    1  A    between atoms: C1_2  and  C2_4
REMARK    2  A    between atoms: C2_4  and  C3_6
REMARK    3  A    between atoms: C4_7  and  O3_8
REMARK    4  A    between atoms: C7_11  and  C8_12
REMARK    5  A    between atoms: C12_17  and  N3_18
REMARK                            x       y       z     vdW  Elec       q    Type
REMARK                         _______ _______ _______ _____ _____    ______ ____
ROOT
ATOM      1  C3  UNL     1      -0.763  -0.942  -0.761  0.00  0.00    +0.000 C 
ATOM      2  C4  UNL     1      -1.651  -2.169  -0.474  0.00  0.00    +0.000 C 
ATOM      3  C5  UNL     1      -1.037  -2.873   0.736  0.00  0.00    +0.000 C 
ATOM      4  C6  UNL     1      -0.218  -1.795   1.427  0.00  0.00    +0.000 C 
ATOM      5  C7  UNL     1       0.406  -1.039   0.245  0.00  0.00    +0.000 C 
ENDROOT
BRANCH   5   6
ATOM      6  C8  UNL     1       1.142   0.250   0.547  0.00  0.00    +0.000 C 
ATOM      7  C9  UNL     1       1.053   0.892   1.782  0.00  0.00    +0.000 C 
ATOM      8  N2  UNL     1       1.676   2.051   2.097  0.00  0.00    +0.000 NA
ATOM      9  C10 UNL     1       2.438   2.608   1.138  0.00  0.00    +0.000 C 
ATOM     10  C11 UNL     1       2.605   2.059  -0.120  0.00  0.00    +0.000 C 
ATOM     11  C12 UNL     1       1.982   0.844  -0.411  0.00  0.00    +0.000 C 
BRANCH  11  12
ATOM     12  N3  UNL     1       2.024   0.352  -1.733  0.00  0.00    +0.000 N 
ATOM     13  H   UNL     1       1.589  -0.503  -1.954  0.00  0.00    +0.000 HD
ATOM     14  H   UNL     1       2.488   0.864  -2.434  0.00  0.00    +0.000 HD
ENDBRANCH  11  12
ENDBRANCH   5   6
BRANCH   1  15
ATOM     15  C2  UNL     1      -1.569   0.327  -0.560  0.00  0.00    +0.000 C 
ATOM     16  O2  UNL     1      -2.389   0.497   0.339  0.00  0.00    +0.000 OA
BRANCH  15  18
ATOM     17  N1  UNL     1      -1.951   2.644  -1.219  0.00  0.00    +0.000 N 
ATOM     18  C1  UNL     1      -1.301   1.484  -1.534  0.00  0.00    +0.000 C 
ATOM     19  O1  UNL     1      -0.564   1.361  -2.499  0.00  0.00    +0.000 OA
ATOM     20  H   UNL     1      -1.840   3.441  -1.787  0.00  0.00    +0.000 HD
ATOM     21  H   UNL     1      -2.531   2.683  -0.424  0.00  0.00    +0.000 HD
ENDBRANCH  15  18
ENDBRANCH   1  15
BRANCH   2  22
ATOM     22  O3  UNL     1      -1.653  -3.068  -1.578  0.00  0.00    +0.000 OA
ATOM     23  H   UNL     1      -0.746  -3.361  -1.758  0.00  0.00    +0.000 HD
ENDBRANCH   2  22
TORSDOF 5
