REMARK  Name = ligantes_elite\Elite_170.pdb
REMARK  5 active torsions:
REMARK  status: ('A' for Active; 'I' for Inactive)
REMARK    1  A    between atoms: C1_1  and  C2_2
REMARK    2  A    between atoms: C2_2  and  C3_3
REMARK    3  A    between atoms: C3_3  and  C4_5
REMARK    4  A    between atoms: C5_6  and  O2_7
REMARK    5  A    between atoms: C8_10  and  C9_11
REMARK                            x       y       z     vdW  Elec       q    Type
REMARK                         _______ _______ _______ _____ _____    ______ ____
ROOT
ATOM      1  C4  UNL     1       0.636  -0.621  -0.564  0.00  0.00    +0.000 C 
ATOM      2  C5  UNL     1       1.273  -1.959  -0.201  0.00  0.00    +0.000 C 
ATOM      3  C6  UNL     1       0.065  -2.792   0.202  0.00  0.00    +0.000 C 
ATOM      4  C7  UNL     1      -0.801  -1.825   1.014  0.00  0.00    +0.000 C 
ATOM      5  C8  UNL     1      -0.418  -0.402   0.540  0.00  0.00    +0.000 C 
ENDROOT
BRANCH   5   6
ATOM      6  C9  UNL     1      -1.604   0.417   0.093  0.00  0.00    +0.000 C 
ATOM      7  C10 UNL     1      -1.898   1.635   0.693  0.00  0.00    +0.000 C 
ATOM      8  N1  UNL     1      -2.938   2.427   0.342  0.00  0.00    +0.000 NA
ATOM      9  C11 UNL     1      -3.735   1.993  -0.656  0.00  0.00    +0.000 C 
ATOM     10  C12 UNL     1      -3.543   0.799  -1.318  0.00  0.00    +0.000 C 
ATOM     11  C13 UNL     1      -2.466   0.018  -0.927  0.00  0.00    +0.000 C 
ATOM     12  F1  UNL     1      -2.265  -1.151  -1.553  0.00  0.00    +0.000 F 
ENDBRANCH   5   6
BRANCH   1  13
ATOM     13  C3  UNL     1       1.689   0.457  -0.770  0.00  0.00    +0.000 C 
ATOM     14  O1  UNL     1       2.226   0.569  -1.876  0.00  0.00    +0.000 OA
BRANCH  13  16
ATOM     15  C1  UNL     1       3.294   2.212   0.083  0.00  0.00    +0.000 C 
ATOM     16  C2  UNL     1       2.079   1.354   0.393  0.00  0.00    +0.000 C 
ENDBRANCH  13  16
ENDBRANCH   1  13
BRANCH   2  17
ATOM     17  O2  UNL     1       2.132  -1.823   0.927  0.00  0.00    +0.000 OA
ATOM     18  H   UNL     1       1.633  -1.451   1.671  0.00  0.00    +0.000 HD
ENDBRANCH   2  17
TORSDOF 4
