REMARK  Name = ligantes_elite\Elite_132.pdb
REMARK  6 active torsions:
REMARK  status: ('A' for Active; 'I' for Inactive)
REMARK    1  A    between atoms: C1_1  and  C2_2
REMARK    2  A    between atoms: C2_2  and  C3_3
REMARK    3  A    between atoms: C3_3  and  C4_4
REMARK    4  A    between atoms: C4_4  and  C5_6
REMARK    5  A    between atoms: C9_11  and  C10_12
REMARK    6  A    between atoms: C14_17  and  C15_18
REMARK                            x       y       z     vdW  Elec       q    Type
REMARK                         _______ _______ _______ _____ _____    ______ ____
ROOT
ATOM      1  C5  UNL     1       0.262  -0.846  -0.224  0.00  0.00    +0.000 C 
ATOM      2  C6  UNL     1       0.607  -2.325  -0.169  0.00  0.00    +0.000 C 
ATOM      3  F1  UNL     1       1.086  -2.638   1.064  0.00  0.00    +0.000 F 
ATOM      4  C7  UNL     1      -0.737  -3.005  -0.350  0.00  0.00    +0.000 C 
ATOM      5  C8  UNL     1      -1.686  -2.168   0.502  0.00  0.00    +0.000 C 
ATOM      6  C9  UNL     1      -1.053  -0.761   0.590  0.00  0.00    +0.000 C 
ENDROOT
BRANCH   6   7
ATOM      7  C10 UNL     1      -1.988   0.336   0.117  0.00  0.00    +0.000 C 
ATOM      8  C11 UNL     1      -2.471   0.344  -1.191  0.00  0.00    +0.000 C 
ATOM      9  N1  UNL     1      -3.288   1.287  -1.709  0.00  0.00    +0.000 NA
ATOM     10  C12 UNL     1      -3.661   2.288  -0.891  0.00  0.00    +0.000 C 
ATOM     11  C13 UNL     1      -3.261   2.380   0.428  0.00  0.00    +0.000 C 
ATOM     12  C14 UNL     1      -2.415   1.392   0.941  0.00  0.00    +0.000 C 
BRANCH  12  13
ATOM     13  C15 UNL     1      -2.036   1.496   2.324  0.00  0.00    +0.000 C 
ATOM     14  N2  UNL     1      -1.781   1.587   3.452  0.00  0.00    +0.000 NA
ENDBRANCH  12  13
ENDBRANCH   6   7
BRANCH   1  15
ATOM     15  C4  UNL     1       1.358   0.054   0.331  0.00  0.00    +0.000 C 
ATOM     16  O1  UNL     1       1.075   1.061   0.981  0.00  0.00    +0.000 OA
BRANCH  15  17
ATOM     17  C3  UNL     1       2.798  -0.289  -0.030  0.00  0.00    +0.000 C 
BRANCH  17  19
ATOM     18  C1  UNL     1       3.689   1.995  -0.684  0.00  0.00    +0.000 C 
ATOM     19  C2  UNL     1       3.796   0.824   0.283  0.00  0.00    +0.000 C 
ENDBRANCH  17  19
ENDBRANCH  15  17
ENDBRANCH   1  15
TORSDOF 5
