REMARK  Name = ligantes_elite\Elite_008.pdb
REMARK  5 active torsions:
REMARK  status: ('A' for Active; 'I' for Inactive)
REMARK    1  A    between atoms: C1_1  and  C2_2
REMARK    2  A    between atoms: C2_2  and  C3_3
REMARK    3  A    between atoms: C2_2  and  C4_4
REMARK    4  A    between atoms: C4_4  and  C5_6
REMARK    5  A    between atoms: C9_11  and  C10_12
REMARK                            x       y       z     vdW  Elec       q    Type
REMARK                         _______ _______ _______ _____ _____    ______ ____
ROOT
ATOM      1  C5  UNL     1      -0.568   0.044   0.909  0.00  0.00    +0.000 C 
ATOM      2  C6  UNL     1      -0.439  -1.469   1.040  0.00  0.00    +0.000 C 
ATOM      3  F1  UNL     1      -1.523  -1.944   1.709  0.00  0.00    +0.000 F 
ATOM      4  C7  UNL     1       0.819  -1.723   1.865  0.00  0.00    +0.000 C 
ATOM      5  C8  UNL     1       1.362  -0.338   2.218  0.00  0.00    +0.000 C 
ATOM      6  C9  UNL     1       0.872   0.572   1.075  0.00  0.00    +0.000 C 
ENDROOT
BRANCH   6   7
ATOM      7  C10 UNL     1       1.866   0.539  -0.068  0.00  0.00    +0.000 C 
ATOM      8  C11 UNL     1       1.732  -0.188  -1.242  0.00  0.00    +0.000 C 
ATOM      9  N1  UNL     1       2.659  -0.235  -2.229  0.00  0.00    +0.000 NA
ATOM     10  C12 UNL     1       3.776   0.504  -2.066  0.00  0.00    +0.000 C 
ATOM     11  C13 UNL     1       4.016   1.276  -0.952  0.00  0.00    +0.000 C 
ATOM     12  C14 UNL     1       3.049   1.279   0.042  0.00  0.00    +0.000 C 
ATOM     13  F2  UNL     1       3.273   2.008   1.145  0.00  0.00    +0.000 F 
ENDBRANCH   6   7
BRANCH   1  14
ATOM     14  C4  UNL     1      -1.332   0.522  -0.317  0.00  0.00    +0.000 C 
ATOM     15  O1  UNL     1      -0.924   1.480  -0.976  0.00  0.00    +0.000 OA
BRANCH  14  17
ATOM     16  C1  UNL     1      -3.101   0.164  -2.074  0.00  0.00    +0.000 C 
ATOM     17  C2  UNL     1      -2.669  -0.149  -0.642  0.00  0.00    +0.000 C 
ATOM     18  C3  UNL     1      -3.736   0.302   0.350  0.00  0.00    +0.000 C 
ENDBRANCH  14  17
ENDBRANCH   1  14
TORSDOF 3
