REMARK  Name = ligantes_elite\Elite_001.pdb
REMARK  7 active torsions:
REMARK  status: ('A' for Active; 'I' for Inactive)
REMARK    1  A    between atoms: C1_1  and  C2_2
REMARK    2  A    between atoms: C2_2  and  C3_3
REMARK    3  A    between atoms: C3_3  and  C4_4
REMARK    4  A    between atoms: C4_4  and  C5_6
REMARK    5  A    between atoms: C6_7  and  C7_8
REMARK    6  A    between atoms: C10_11  and  C11_12
REMARK    7  A    between atoms: C15_17  and  C16_18
REMARK                            x       y       z     vdW  Elec       q    Type
REMARK                         _______ _______ _______ _____ _____    ______ ____
ROOT
ATOM      1  C5  UNL     1       0.539   0.706   0.112  0.00  0.00    +0.000 C 
ATOM      2  C6  UNL     1       0.036   1.927   0.917  0.00  0.00    +0.000 C 
ATOM      3  C7  UNL     1       1.125   2.984   1.086  0.00  0.00    +0.000 C 
ATOM      4  C8  UNL     1      -1.175   2.466   0.139  0.00  0.00    +0.000 C 
ATOM      5  C9  UNL     1      -1.248   1.649  -1.146  0.00  0.00    +0.000 C 
ATOM      6  C10 UNL     1      -0.644   0.284  -0.783  0.00  0.00    +0.000 C 
ENDROOT
BRANCH   6   7
ATOM      7  C11 UNL     1      -1.717  -0.661  -0.259  0.00  0.00    +0.000 C 
ATOM      8  C12 UNL     1      -2.020  -0.801   1.093  0.00  0.00    +0.000 C 
ATOM      9  N1  UNL     1      -2.980  -1.618   1.586  0.00  0.00    +0.000 NA
ATOM     10  C13 UNL     1      -3.696  -2.341   0.708  0.00  0.00    +0.000 C 
ATOM     11  C14 UNL     1      -3.499  -2.282  -0.655  0.00  0.00    +0.000 C 
ATOM     12  C15 UNL     1      -2.504  -1.431  -1.143  0.00  0.00    +0.000 C 
BRANCH  12  13
ATOM     13  C16 UNL     1      -2.319  -1.372  -2.567  0.00  0.00    +0.000 C 
ATOM     14  N2  UNL     1      -2.157  -1.322  -3.715  0.00  0.00    +0.000 NA
ENDBRANCH  12  13
ENDBRANCH   6   7
BRANCH   1  15
ATOM     15  C4  UNL     1       1.150  -0.412   0.951  0.00  0.00    +0.000 C 
ATOM     16  O1  UNL     1       1.212  -0.336   2.179  0.00  0.00    +0.000 OA
BRANCH  15  17
ATOM     17  C3  UNL     1       1.715  -1.624   0.230  0.00  0.00    +0.000 C 
BRANCH  17  19
ATOM     18  C1  UNL     1       4.131  -0.852   0.279  0.00  0.00    +0.000 C 
ATOM     19  C2  UNL     1       2.966  -1.312  -0.585  0.00  0.00    +0.000 C 
ENDBRANCH  17  19
ENDBRANCH  15  17
ENDBRANCH   1  15
TORSDOF 5
