REMARK  Name = ligantes_elite\Elite_048.pdb
REMARK  4 active torsions:
REMARK  status: ('A' for Active; 'I' for Inactive)
REMARK    1  A    between atoms: C1_2  and  C2_4
REMARK    2  A    between atoms: C2_4  and  C3_6
REMARK    3  A    between atoms: C7_11  and  C8_12
REMARK    4  A    between atoms: C12_17  and  C13_18
REMARK                            x       y       z     vdW  Elec       q    Type
REMARK                         _______ _______ _______ _____ _____    ______ ____
ROOT
ATOM      1  C3  UNL     1       1.270  -0.356   0.504  0.00  0.00    +0.000 C 
ATOM      2  C4  UNL     1       2.150  -0.353   1.741  0.00  0.00    +0.000 C 
ATOM      3  F1  UNL     1       3.432  -0.659   1.448  0.00  0.00    +0.000 F 
ATOM      4  C5  UNL     1       2.043   1.051   2.325  0.00  0.00    +0.000 C 
ATOM      5  C6  UNL     1       0.739   1.640   1.774  0.00  0.00    +0.000 C 
ATOM      6  C7  UNL     1       0.082   0.505   0.960  0.00  0.00    +0.000 C 
ENDROOT
BRANCH   6   7
ATOM      7  C8  UNL     1      -0.919   0.840  -0.127  0.00  0.00    +0.000 C 
ATOM      8  C9  UNL     1      -0.947   2.101  -0.732  0.00  0.00    +0.000 C 
ATOM      9  N2  UNL     1      -1.789   2.469  -1.724  0.00  0.00    +0.000 NA
ATOM     10  C10 UNL     1      -2.644   1.533  -2.163  0.00  0.00    +0.000 C 
ATOM     11  C11 UNL     1      -2.699   0.252  -1.647  0.00  0.00    +0.000 C 
ATOM     12  C12 UNL     1      -1.843  -0.127  -0.598  0.00  0.00    +0.000 C 
BRANCH  12  13
ATOM     13  C13 UNL     1      -1.918  -1.545  -0.059  0.00  0.00    +0.000 C 
ATOM     14  C14 UNL     1      -3.260  -2.205   0.187  0.00  0.00    +0.000 C 
ATOM     15  C15 UNL     1      -2.408  -1.804   1.348  0.00  0.00    +0.000 C 
ENDBRANCH  12  13
ENDBRANCH   6   7
BRANCH   1  16
ATOM     16  C2  UNL     1       2.048   0.207  -0.667  0.00  0.00    +0.000 C 
ATOM     17  O2  UNL     1       2.198   1.403  -0.903  0.00  0.00    +0.000 OA
BRANCH  16  19
ATOM     18  N1  UNL     1       3.572  -0.263  -2.511  0.00  0.00    +0.000 N 
ATOM     19  C1  UNL     1       2.735  -0.814  -1.581  0.00  0.00    +0.000 C 
ATOM     20  O1  UNL     1       2.524  -2.011  -1.481  0.00  0.00    +0.000 OA
ATOM     21  H   UNL     1       4.057  -0.843  -3.142  0.00  0.00    +0.000 HD
ATOM     22  H   UNL     1       3.690   0.714  -2.550  0.00  0.00    +0.000 HD
ENDBRANCH  16  19
ENDBRANCH   1  16
TORSDOF 4
