REMARK  Name = ligantes_elite\Elite_149.pdb
REMARK  6 active torsions:
REMARK  status: ('A' for Active; 'I' for Inactive)
REMARK    1  A    between atoms: C1_1  and  C2_2
REMARK    2  A    between atoms: C2_2  and  C3_3
REMARK    3  A    between atoms: C3_3  and  C4_5
REMARK    4  A    between atoms: C5_6  and  C6_7
REMARK    5  A    between atoms: C9_11  and  C10_12
REMARK    6  A    between atoms: C14_17  and  N2_18
REMARK                            x       y       z     vdW  Elec       q    Type
REMARK                         _______ _______ _______ _____ _____    ______ ____
ROOT
ATOM      1  C4  UNL     1       0.408   0.965  -0.160  0.00  0.00    +0.000 C 
ATOM      2  C5  UNL     1       1.018   2.229   0.493  0.00  0.00    +0.000 C 
ATOM      3  C7  UNL     1       0.228   2.459   1.791  0.00  0.00    +0.000 C 
ATOM      4  C8  UNL     1      -0.388   1.103   2.112  0.00  0.00    +0.000 C 
ATOM      5  C9  UNL     1      -0.804   0.596   0.725  0.00  0.00    +0.000 C 
ENDROOT
BRANCH   5   6
ATOM      6  C10 UNL     1      -1.301  -0.824   0.588  0.00  0.00    +0.000 C 
ATOM      7  C11 UNL     1      -1.035  -1.791   1.561  0.00  0.00    +0.000 C 
ATOM      8  N1  UNL     1      -1.395  -3.092   1.477  0.00  0.00    +0.000 NA
ATOM      9  C12 UNL     1      -2.020  -3.473   0.350  0.00  0.00    +0.000 C 
ATOM     10  C13 UNL     1      -2.330  -2.605  -0.680  0.00  0.00    +0.000 C 
ATOM     11  C14 UNL     1      -2.022  -1.249  -0.543  0.00  0.00    +0.000 C 
BRANCH  11  12
ATOM     12  N2  UNL     1      -2.252  -0.396  -1.641  0.00  0.00    +0.000 N 
ATOM     13  H   UNL     1      -2.044   0.564  -1.571  0.00  0.00    +0.000 HD
ATOM     14  H   UNL     1      -2.621  -0.760  -2.478  0.00  0.00    +0.000 HD
ENDBRANCH  11  12
ENDBRANCH   5   6
BRANCH   1  15
ATOM     15  C3  UNL     1       1.452  -0.153  -0.211  0.00  0.00    +0.000 C 
ATOM     16  O1  UNL     1       2.102  -0.467   0.786  0.00  0.00    +0.000 OA
BRANCH  15  18
ATOM     17  C1  UNL     1       2.577  -2.031  -1.471  0.00  0.00    +0.000 C 
ATOM     18  C2  UNL     1       1.656  -0.828  -1.557  0.00  0.00    +0.000 C 
ENDBRANCH  15  18
ENDBRANCH   1  15
BRANCH   2  19
ATOM     19  C6  UNL     1       0.963   3.438  -0.429  0.00  0.00    +0.000 C 
ATOM     20  F1  UNL     1       1.509   4.507   0.208  0.00  0.00    +0.000 F 
ENDBRANCH   2  19
TORSDOF 5
