REMARK  Name = ligantes_elite\Elite_003.pdb
REMARK  7 active torsions:
REMARK  status: ('A' for Active; 'I' for Inactive)
REMARK    1  A    between atoms: C1_1  and  C2_2
REMARK    2  A    between atoms: C2_2  and  C3_3
REMARK    3  A    between atoms: C2_2  and  C4_4
REMARK    4  A    between atoms: C4_4  and  C5_6
REMARK    5  A    between atoms: C6_7  and  C7_8
REMARK    6  A    between atoms: C10_11  and  C11_12
REMARK    7  A    between atoms: C15_17  and  N2_18
REMARK                            x       y       z     vdW  Elec       q    Type
REMARK                         _______ _______ _______ _____ _____    ______ ____
ROOT
ATOM      1  C5  UNL     1      -0.523   0.773   0.367  0.00  0.00    +0.000 C 
ATOM      2  C6  UNL     1      -0.610   1.273  -1.094  0.00  0.00    +0.000 C 
ATOM      3  C7  UNL     1      -1.693   2.335  -1.289  0.00  0.00    +0.000 C 
ATOM      4  C8  UNL     1       0.777   1.863  -1.414  0.00  0.00    +0.000 C 
ATOM      5  C9  UNL     1       1.525   1.899  -0.086  0.00  0.00    +0.000 C 
ATOM      6  C10 UNL     1       0.997   0.674   0.675  0.00  0.00    +0.000 C 
ENDROOT
BRANCH   6   7
ATOM      7  C11 UNL     1       1.804  -0.560   0.285  0.00  0.00    +0.000 C 
ATOM      8  C12 UNL     1       1.371  -1.468  -0.685  0.00  0.00    +0.000 C 
ATOM      9  N1  UNL     1       2.067  -2.542  -1.124  0.00  0.00    +0.000 NA
ATOM     10  C13 UNL     1       3.274  -2.742  -0.566  0.00  0.00    +0.000 C 
ATOM     11  C14 UNL     1       3.811  -1.915   0.401  0.00  0.00    +0.000 C 
ATOM     12  C15 UNL     1       3.060  -0.831   0.864  0.00  0.00    +0.000 C 
BRANCH  12  13
ATOM     13  N2  UNL     1       3.701   0.054   1.755  0.00  0.00    +0.000 N 
ATOM     14  H   UNL     1       3.215   0.833   2.110  0.00  0.00    +0.000 HD
ATOM     15  H   UNL     1       4.635  -0.107   2.022  0.00  0.00    +0.000 HD
ENDBRANCH  12  13
ENDBRANCH   6   7
BRANCH   1  16
ATOM     16  C4  UNL     1      -1.307  -0.478   0.775  0.00  0.00    +0.000 C 
ATOM     17  O1  UNL     1      -0.896  -1.193   1.694  0.00  0.00    +0.000 OA
BRANCH  16  19
ATOM     18  C1  UNL     1      -3.746  -0.021   0.955  0.00  0.00    +0.000 C 
ATOM     19  C2  UNL     1      -2.672  -0.742   0.148  0.00  0.00    +0.000 C 
ATOM     20  C3  UNL     1      -2.953  -2.243   0.090  0.00  0.00    +0.000 C 
ENDBRANCH  16  19
ENDBRANCH   1  16
TORSDOF 4
