REMARK  Name = ligantes_elite\Elite_139.pdb
REMARK  4 active torsions:
REMARK  status: ('A' for Active; 'I' for Inactive)
REMARK    1  A    between atoms: C1_2  and  C2_3
REMARK    2  A    between atoms: C1_2  and  C5_6
REMARK    3  A    between atoms: C6_7  and  C7_8
REMARK    4  A    between atoms: C10_12  and  C11_13
REMARK                            x       y       z     vdW  Elec       q    Type
REMARK                         _______ _______ _______ _____ _____    ______ ____
ROOT
ATOM      1  C5  UNL     1      -0.257   0.532   0.649  0.00  0.00    +0.000 C 
ATOM      2  C6  UNL     1      -0.868   1.911   0.294  0.00  0.00    +0.000 C 
ATOM      3  C8  UNL     1      -0.286   2.281  -1.074  0.00  0.00    +0.000 C 
ATOM      4  C9  UNL     1       1.027   1.516  -1.152  0.00  0.00    +0.000 C 
ATOM      5  C10 UNL     1       0.670   0.159  -0.528  0.00  0.00    +0.000 C 
ENDROOT
BRANCH   5   6
ATOM      6  C11 UNL     1       1.860  -0.686  -0.129  0.00  0.00    +0.000 C 
ATOM      7  C12 UNL     1       2.885  -0.148   0.651  0.00  0.00    +0.000 C 
ATOM      8  N1  UNL     1       3.986  -0.817   1.061  0.00  0.00    +0.000 NA
ATOM      9  C13 UNL     1       4.081  -2.110   0.704  0.00  0.00    +0.000 C 
ATOM     10  C14 UNL     1       3.126  -2.761  -0.050  0.00  0.00    +0.000 C 
ATOM     11  C15 UNL     1       2.006  -2.040  -0.466  0.00  0.00    +0.000 C 
ATOM     12 BR1  UNL     1       0.722  -2.999  -1.490  0.00  0.00    +0.000 Br
ENDBRANCH   5   6
BRANCH   1  14
ATOM     13  O1  UNL     1      -1.246  -1.278   1.885  0.00  0.00    +0.000 OA
ATOM     14  C1  UNL     1      -1.298  -0.550   0.897  0.00  0.00    +0.000 C 
BRANCH  14  15
ATOM     15  C2  UNL     1      -2.377  -0.741  -0.122  0.00  0.00    +0.000 C 
ATOM     16  C3  UNL     1      -3.798  -0.976   0.330  0.00  0.00    +0.000 C 
ATOM     17  C4  UNL     1      -3.021  -2.096  -0.300  0.00  0.00    +0.000 C 
ENDBRANCH  14  15
ENDBRANCH   1  14
BRANCH   2  18
ATOM     18  C7  UNL     1      -0.519   2.954   1.353  0.00  0.00    +0.000 C 
ATOM     19  F1  UNL     1      -1.093   2.585   2.528  0.00  0.00    +0.000 F 
ENDBRANCH   2  18
TORSDOF 4
