REMARK  Name = ligantes_elite\Elite_103.pdb
REMARK  4 active torsions:
REMARK  status: ('A' for Active; 'I' for Inactive)
REMARK    1  A    between atoms: C1_2  and  C2_4
REMARK    2  A    between atoms: C2_4  and  C3_6
REMARK    3  A    between atoms: C7_11  and  C8_12
REMARK    4  A    between atoms: C12_17  and  N3_18
REMARK                            x       y       z     vdW  Elec       q    Type
REMARK                         _______ _______ _______ _____ _____    ______ ____
ROOT
ATOM      1  C3  UNL     1       1.192  -0.862   0.125  0.00  0.00    +0.000 C 
ATOM      2  C4  UNL     1       1.741  -2.231  -0.287  0.00  0.00    +0.000 C 
ATOM      3  F1  UNL     1       2.515  -2.720   0.720  0.00  0.00    +0.000 F 
ATOM      4  C5  UNL     1       0.543  -3.155  -0.469  0.00  0.00    +0.000 C 
ATOM      5  C6  UNL     1      -0.626  -2.212  -0.699  0.00  0.00    +0.000 C 
ATOM      6  C7  UNL     1      -0.331  -1.062   0.276  0.00  0.00    +0.000 C 
ENDROOT
BRANCH   6   7
ATOM      7  C8  UNL     1      -1.179   0.188   0.168  0.00  0.00    +0.000 C 
ATOM      8  C9  UNL     1      -1.939   0.464  -0.972  0.00  0.00    +0.000 C 
ATOM      9  N2  UNL     1      -2.740   1.542  -1.130  0.00  0.00    +0.000 NA
ATOM     10  C10 UNL     1      -2.827   2.384  -0.087  0.00  0.00    +0.000 C 
ATOM     11  C11 UNL     1      -2.121   2.214   1.089  0.00  0.00    +0.000 C 
ATOM     12  C12 UNL     1      -1.238   1.137   1.206  0.00  0.00    +0.000 C 
BRANCH  12  13
ATOM     13  N3  UNL     1      -0.603   0.934   2.443  0.00  0.00    +0.000 N 
ATOM     14  H   UNL     1       0.024   0.184   2.557  0.00  0.00    +0.000 HD
ATOM     15  H   UNL     1      -0.786   1.542   3.196  0.00  0.00    +0.000 HD
ENDBRANCH  12  13
ENDBRANCH   6   7
BRANCH   1  16
ATOM     16  C2  UNL     1       1.529   0.157  -0.940  0.00  0.00    +0.000 C 
ATOM     17  O2  UNL     1       1.452  -0.053  -2.148  0.00  0.00    +0.000 OA
BRANCH  16  19
ATOM     18  N1  UNL     1       2.040   2.488  -1.445  0.00  0.00    +0.000 N 
ATOM     19  C1  UNL     1       1.938   1.553  -0.453  0.00  0.00    +0.000 C 
ATOM     20  O1  UNL     1       2.147   1.785   0.726  0.00  0.00    +0.000 OA
ATOM     21  H   UNL     1       2.297   3.413  -1.225  0.00  0.00    +0.000 HD
ATOM     22  H   UNL     1       1.856   2.237  -2.379  0.00  0.00    +0.000 HD
ENDBRANCH  16  19
ENDBRANCH   1  16
TORSDOF 4
