REMARK  Name = ligantes_elite\Elite_075.pdb
REMARK  4 active torsions:
REMARK  status: ('A' for Active; 'I' for Inactive)
REMARK    1  A    between atoms: C1_1  and  C2_2
REMARK    2  A    between atoms: C2_2  and  C3_3
REMARK    3  A    between atoms: C3_3  and  C4_5
REMARK    4  A    between atoms: C8_10  and  C9_11
REMARK                            x       y       z     vdW  Elec       q    Type
REMARK                         _______ _______ _______ _____ _____    ______ ____
ROOT
ATOM      1  C4  UNL     1      -0.572   0.090  -0.142  0.00  0.00    +0.000 C 
ATOM      2  C5  UNL     1      -1.167  -1.297  -0.308  0.00  0.00    +0.000 C 
ATOM      3  F1  UNL     1      -2.469  -1.253  -0.659  0.00  0.00    +0.000 F 
ATOM      4  C6  UNL     1      -0.983  -1.980   1.036  0.00  0.00    +0.000 C 
ATOM      5  C7  UNL     1       0.247  -1.323   1.667  0.00  0.00    +0.000 C 
ATOM      6  C8  UNL     1       0.675  -0.167   0.730  0.00  0.00    +0.000 C 
ENDROOT
BRANCH   6   7
ATOM      7  C9  UNL     1       1.901  -0.420  -0.138  0.00  0.00    +0.000 C 
ATOM      8  C10 UNL     1       2.323  -1.705  -0.475  0.00  0.00    +0.000 C 
ATOM      9  N1  UNL     1       3.387  -1.991  -1.260  0.00  0.00    +0.000 NA
ATOM     10  C11 UNL     1       4.090  -0.951  -1.745  0.00  0.00    +0.000 C 
ATOM     11  C12 UNL     1       3.768   0.365  -1.491  0.00  0.00    +0.000 C 
ATOM     12  C13 UNL     1       2.661   0.628  -0.686  0.00  0.00    +0.000 C 
ATOM     13 BR1  UNL     1       2.236   2.460  -0.398  0.00  0.00    +0.000 Br
ENDBRANCH   6   7
BRANCH   1  14
ATOM     14  C3  UNL     1      -1.562   1.035   0.532  0.00  0.00    +0.000 C 
ATOM     15  O1  UNL     1      -1.579   1.190   1.753  0.00  0.00    +0.000 OA
BRANCH  14  17
ATOM     16  C1  UNL     1      -3.513   2.636   0.371  0.00  0.00    +0.000 C 
ATOM     17  C2  UNL     1      -2.515   1.782  -0.390  0.00  0.00    +0.000 C 
ENDBRANCH  14  17
ENDBRANCH   1  14
TORSDOF 3
