REMARK  Name = ligantes_elite\Elite_022.pdb
REMARK  6 active torsions:
REMARK  status: ('A' for Active; 'I' for Inactive)
REMARK    1  A    between atoms: C1_1  and  C2_2
REMARK    2  A    between atoms: C2_2  and  C3_3
REMARK    3  A    between atoms: C3_3  and  C4_4
REMARK    4  A    between atoms: C4_4  and  C5_6
REMARK    5  A    between atoms: C9_11  and  C10_12
REMARK    6  A    between atoms: C14_17  and  C15_18
REMARK                            x       y       z     vdW  Elec       q    Type
REMARK                         _______ _______ _______ _____ _____    ______ ____
ROOT
ATOM      1  C5  UNL     1       0.596  -1.304  -0.497  0.00  0.00    +0.000 C 
ATOM      2  C6  UNL     1       0.731  -2.555   0.371  0.00  0.00    +0.000 C 
ATOM      3  F1  UNL     1       0.537  -2.273   1.683  0.00  0.00    +0.000 F 
ATOM      4  C7  UNL     1      -0.435  -3.423  -0.075  0.00  0.00    +0.000 C 
ATOM      5  C8  UNL     1      -1.578  -2.415  -0.165  0.00  0.00    +0.000 C 
ATOM      6  C9  UNL     1      -0.923  -1.160  -0.770  0.00  0.00    +0.000 C 
ENDROOT
BRANCH   6   7
ATOM      7  C10 UNL     1      -1.589   0.173  -0.500  0.00  0.00    +0.000 C 
ATOM      8  C11 UNL     1      -1.883   0.965  -1.622  0.00  0.00    +0.000 C 
ATOM      9  N1  UNL     1      -2.437   2.196  -1.597  0.00  0.00    +0.000 NA
ATOM     10  C12 UNL     1      -2.744   2.689  -0.387  0.00  0.00    +0.000 C 
ATOM     11  C13 UNL     1      -2.512   2.004   0.790  0.00  0.00    +0.000 C 
ATOM     12  C14 UNL     1      -1.916   0.727   0.756  0.00  0.00    +0.000 C 
BRANCH  12  13
ATOM     13  C15 UNL     1      -1.730   0.043   2.092  0.00  0.00    +0.000 C 
ATOM     14  F2  UNL     1      -2.785  -0.770   2.387  0.00  0.00    +0.000 F 
ATOM     15  F3  UNL     1      -1.666   0.927   3.133  0.00  0.00    +0.000 F 
ENDBRANCH  12  13
ENDBRANCH   6   7
BRANCH   1  16
ATOM     16  C4  UNL     1       1.311  -0.071   0.038  0.00  0.00    +0.000 C 
ATOM     17  O1  UNL     1       1.367   0.186   1.238  0.00  0.00    +0.000 OA
BRANCH  16  18
ATOM     18  C3  UNL     1       1.926   0.849  -1.011  0.00  0.00    +0.000 C 
BRANCH  18  20
ATOM     19  C1  UNL     1       3.923   1.824   0.216  0.00  0.00    +0.000 C 
ATOM     20  C2  UNL     1       2.574   2.105  -0.433  0.00  0.00    +0.000 C 
ENDBRANCH  18  20
ENDBRANCH  16  18
ENDBRANCH   1  16
TORSDOF 5
