REMARK  Name = ligantes_elite\Elite_031.pdb
REMARK  5 active torsions:
REMARK  status: ('A' for Active; 'I' for Inactive)
REMARK    1  A    between atoms: C1_1  and  C2_2
REMARK    2  A    between atoms: C5_5  and  C6_6
REMARK    3  A    between atoms: C10_11  and  C11_12
REMARK    4  A    between atoms: C14_15  and  C15_16
REMARK    5  A    between atoms: C15_16  and  C16_18
REMARK                            x       y       z     vdW  Elec       q    Type
REMARK                         _______ _______ _______ _____ _____    ______ ____
ROOT
ATOM      1  C1  UNL     1      -3.622  -1.604  -0.215  0.00  0.00    +0.000 C 
ATOM      2  C2  UNL     1      -2.217  -1.455   0.351  0.00  0.00    +0.000 C 
ATOM      3  C3  UNL     1      -1.473  -2.788   0.417  0.00  0.00    +0.000 C 
ATOM      4  C4  UNL     1      -0.022  -2.374   0.635  0.00  0.00    +0.000 C 
ATOM      5  C5  UNL     1       0.149  -1.025  -0.108  0.00  0.00    +0.000 C 
ATOM      6  C14 UNL     1      -1.287  -0.613  -0.530  0.00  0.00    +0.000 C 
ENDROOT
BRANCH   5   7
ATOM      7  C6  UNL     1       0.956  -0.024   0.698  0.00  0.00    +0.000 C 
ATOM      8  C7  UNL     1       0.527   0.378   1.969  0.00  0.00    +0.000 C 
ATOM      9  N1  UNL     1       1.177   1.253   2.765  0.00  0.00    +0.000 NA
ATOM     10  C8  UNL     1       2.332   1.746   2.293  0.00  0.00    +0.000 C 
ATOM     11  C9  UNL     1       2.859   1.409   1.059  0.00  0.00    +0.000 C 
ATOM     12  C10 UNL     1       2.172   0.517   0.216  0.00  0.00    +0.000 C 
BRANCH  12  13
ATOM     13  C11 UNL     1       2.779   0.133  -1.121  0.00  0.00    +0.000 C 
ATOM     14  C12 UNL     1       3.482   1.156  -1.987  0.00  0.00    +0.000 C 
ATOM     15  C13 UNL     1       2.149   0.622  -2.405  0.00  0.00    +0.000 C 
ENDBRANCH  12  13
ENDBRANCH   5   7
BRANCH   6  16
ATOM     16  C15 UNL     1      -1.514   0.883  -0.677  0.00  0.00    +0.000 C 
ATOM     17  O1  UNL     1      -1.181   1.494  -1.695  0.00  0.00    +0.000 OA
BRANCH  16  18
ATOM     18  C16 UNL     1      -2.114   1.705   0.477  0.00  0.00    +0.000 C 
ATOM     19  N2  UNL     1      -1.969   3.056   0.325  0.00  0.00    +0.000 N 
ATOM     20  O2  UNL     1      -2.666   1.203   1.438  0.00  0.00    +0.000 OA
ATOM     21  H   UNL     1      -1.514   3.416  -0.471  0.00  0.00    +0.000 HD
ATOM     22  H   UNL     1      -2.319   3.669   1.011  0.00  0.00    +0.000 HD
ENDBRANCH  16  18
ENDBRANCH   6  16
TORSDOF 4
