REMARK  Name = ligantes_elite\Elite_186.pdb
REMARK  7 active torsions:
REMARK  status: ('A' for Active; 'I' for Inactive)
REMARK    1  A    between atoms: C1_1  and  C2_2
REMARK    2  A    between atoms: C2_2  and  C3_3
REMARK    3  A    between atoms: C3_3  and  C4_4
REMARK    4  A    between atoms: C4_4  and  C5_6
REMARK    5  A    between atoms: C6_7  and  C7_8
REMARK    6  A    between atoms: C10_12  and  C11_13
REMARK    7  A    between atoms: C15_18  and  C16_19
REMARK                            x       y       z     vdW  Elec       q    Type
REMARK                         _______ _______ _______ _____ _____    ______ ____
ROOT
ATOM      1  C5  UNL     1       0.666  -0.693  -0.795  0.00  0.00    +0.000 C 
ATOM      2  C6  UNL     1       0.992  -1.799  -1.819  0.00  0.00    +0.000 C 
ATOM      3  C8  UNL     1      -0.161  -2.794  -1.693  0.00  0.00    +0.000 C 
ATOM      4  C9  UNL     1      -1.366  -1.884  -1.514  0.00  0.00    +0.000 C 
ATOM      5  C10 UNL     1      -0.865  -0.792  -0.552  0.00  0.00    +0.000 C 
ENDROOT
BRANCH   5   6
ATOM      6  C11 UNL     1      -1.611   0.518  -0.712  0.00  0.00    +0.000 C 
ATOM      7  C12 UNL     1      -1.485   1.256  -1.895  0.00  0.00    +0.000 C 
ATOM      8  N1  UNL     1      -2.111   2.423  -2.150  0.00  0.00    +0.000 NA
ATOM      9  C13 UNL     1      -2.933   2.879  -1.191  0.00  0.00    +0.000 C 
ATOM     10  C14 UNL     1      -3.144   2.225   0.011  0.00  0.00    +0.000 C 
ATOM     11  C15 UNL     1      -2.471   1.024   0.291  0.00  0.00    +0.000 C 
BRANCH  11  12
ATOM     12  C16 UNL     1      -2.723   0.301   1.600  0.00  0.00    +0.000 C 
ATOM     13  C17 UNL     1      -2.919   1.055   2.897  0.00  0.00    +0.000 C 
ATOM     14  C18 UNL     1      -1.652   0.294   2.669  0.00  0.00    +0.000 C 
ENDBRANCH  11  12
ENDBRANCH   5   6
BRANCH   1  15
ATOM     15  C4  UNL     1       1.386  -0.829   0.543  0.00  0.00    +0.000 C 
ATOM     16  O1  UNL     1       1.508  -1.916   1.108  0.00  0.00    +0.000 OA
BRANCH  15  17
ATOM     17  C3  UNL     1       1.946   0.436   1.159  0.00  0.00    +0.000 C 
BRANCH  17  19
ATOM     18  C1  UNL     1       3.913   2.001   1.207  0.00  0.00    +0.000 C 
ATOM     19  C2  UNL     1       3.320   0.749   0.582  0.00  0.00    +0.000 C 
ENDBRANCH  17  19
ENDBRANCH  15  17
ENDBRANCH   1  15
BRANCH   2  20
ATOM     20  C7  UNL     1       2.358  -2.459  -1.721  0.00  0.00    +0.000 C 
ATOM     21  F1  UNL     1       2.542  -3.220  -2.836  0.00  0.00    +0.000 F 
ENDBRANCH   2  20
TORSDOF 6
