REMARK  Name = ligantes_elite\Elite_100.pdb
REMARK  4 active torsions:
REMARK  status: ('A' for Active; 'I' for Inactive)
REMARK    1  A    between atoms: C1_2  and  C2_4
REMARK    2  A    between atoms: C2_4  and  C3_6
REMARK    3  A    between atoms: C4_7  and  C5_8
REMARK    4  A    between atoms: C8_12  and  C9_13
REMARK                            x       y       z     vdW  Elec       q    Type
REMARK                         _______ _______ _______ _____ _____    ______ ____
ROOT
ATOM      1  C3  UNL     1      -0.989  -0.001  -0.023  0.00  0.00    +0.000 C 
ATOM      2  C4  UNL     1      -1.772  -1.207   0.539  0.00  0.00    +0.000 C 
ATOM      3  C6  UNL     1      -0.729  -2.314   0.741  0.00  0.00    +0.000 C 
ATOM      4  C7  UNL     1       0.489  -1.869  -0.055  0.00  0.00    +0.000 C 
ATOM      5  C8  UNL     1       0.506  -0.345   0.130  0.00  0.00    +0.000 C 
ENDROOT
BRANCH   5   6
ATOM      6  C9  UNL     1       1.492   0.338  -0.788  0.00  0.00    +0.000 C 
ATOM      7  C10 UNL     1       1.156   1.248  -1.782  0.00  0.00    +0.000 C 
ATOM      8  N2  UNL     1       2.052   1.859  -2.595  0.00  0.00    +0.000 NA
ATOM      9  C11 UNL     1       3.356   1.567  -2.417  0.00  0.00    +0.000 C 
ATOM     10  C12 UNL     1       3.810   0.692  -1.456  0.00  0.00    +0.000 C 
ATOM     11  C13 UNL     1       2.861   0.087  -0.646  0.00  0.00    +0.000 C 
ATOM     12  F2  UNL     1       3.286  -0.754   0.308  0.00  0.00    +0.000 F 
ENDBRANCH   5   6
BRANCH   1  13
ATOM     13  C2  UNL     1      -1.383   1.310   0.626  0.00  0.00    +0.000 C 
ATOM     14  O2  UNL     1      -1.898   2.227  -0.010  0.00  0.00    +0.000 OA
BRANCH  13  16
ATOM     15  N1  UNL     1      -1.375   2.783   2.570  0.00  0.00    +0.000 N 
ATOM     16  C1  UNL     1      -1.134   1.511   2.130  0.00  0.00    +0.000 C 
ATOM     17  O1  UNL     1      -0.761   0.606   2.854  0.00  0.00    +0.000 OA
ATOM     18  H   UNL     1      -1.243   3.009   3.519  0.00  0.00    +0.000 HD
ATOM     19  H   UNL     1      -1.680   3.473   1.938  0.00  0.00    +0.000 HD
ENDBRANCH  13  16
ENDBRANCH   1  13
BRANCH   2  20
ATOM     20  C5  UNL     1      -2.885  -1.641  -0.411  0.00  0.00    +0.000 C 
ATOM     21  F1  UNL     1      -3.572  -2.667   0.158  0.00  0.00    +0.000 F 
ENDBRANCH   2  20
TORSDOF 4
