REMARK  Name = ligantes_elite\Elite_143.pdb
REMARK  5 active torsions:
REMARK  status: ('A' for Active; 'I' for Inactive)
REMARK    1  A    between atoms: C1_2  and  C2_3
REMARK    2  A    between atoms: C1_2  and  C5_6
REMARK    3  A    between atoms: C6_7  and  O2_8
REMARK    4  A    between atoms: C9_11  and  C10_12
REMARK    5  A    between atoms: C14_17  and  C15_18
REMARK                            x       y       z     vdW  Elec       q    Type
REMARK                         _______ _______ _______ _____ _____    ______ ____
ROOT
ATOM      1  C5  UNL     1       0.684   0.460  -0.261  0.00  0.00    +0.000 C 
ATOM      2  C6  UNL     1       0.971   1.824  -0.894  0.00  0.00    +0.000 C 
ATOM      3  C7  UNL     1       0.187   2.809  -0.042  0.00  0.00    +0.000 C 
ATOM      4  C8  UNL     1      -1.132   2.083   0.174  0.00  0.00    +0.000 C 
ATOM      5  C9  UNL     1      -0.744   0.597   0.339  0.00  0.00    +0.000 C 
ENDROOT
BRANCH   5   6
ATOM      6  C10 UNL     1      -1.750  -0.358  -0.277  0.00  0.00    +0.000 C 
ATOM      7  C11 UNL     1      -2.013  -0.320  -1.650  0.00  0.00    +0.000 C 
ATOM      8  N1  UNL     1      -2.877  -1.130  -2.297  0.00  0.00    +0.000 NA
ATOM      9  C12 UNL     1      -3.530  -2.036  -1.547  0.00  0.00    +0.000 C 
ATOM     10  C13 UNL     1      -3.353  -2.168  -0.182  0.00  0.00    +0.000 C 
ATOM     11  C14 UNL     1      -2.449  -1.322   0.478  0.00  0.00    +0.000 C 
BRANCH  11  12
ATOM     12  C15 UNL     1      -2.268  -1.480   1.968  0.00  0.00    +0.000 C 
ATOM     13  F1  UNL     1      -3.025  -2.483   2.501  0.00  0.00    +0.000 F 
ENDBRANCH  11  12
ENDBRANCH   5   6
BRANCH   1  15
ATOM     14  O1  UNL     1       1.683   0.667   1.941  0.00  0.00    +0.000 OA
ATOM     15  C1  UNL     1       1.675   0.122   0.842  0.00  0.00    +0.000 C 
BRANCH  15  16
ATOM     16  C2  UNL     1       2.605  -1.011   0.578  0.00  0.00    +0.000 C 
ATOM     17  C3  UNL     1       3.483  -1.059  -0.648  0.00  0.00    +0.000 C 
ATOM     18  C4  UNL     1       4.094  -0.782   0.693  0.00  0.00    +0.000 C 
ENDBRANCH  15  16
ENDBRANCH   1  15
BRANCH   2  19
ATOM     19  O2  UNL     1       2.346   2.136  -0.971  0.00  0.00    +0.000 OA
ATOM     20  H   UNL     1       2.727   2.141  -0.079  0.00  0.00    +0.000 HD
ENDBRANCH   2  19
TORSDOF 5
