REMARK  Name = ligantes_elite\Elite_009.pdb
REMARK  5 active torsions:
REMARK  status: ('A' for Active; 'I' for Inactive)
REMARK    1  A    between atoms: C1_1  and  C2_2
REMARK    2  A    between atoms: C2_2  and  C3_3
REMARK    3  A    between atoms: C3_3  and  C4_5
REMARK    4  A    between atoms: C5_6  and  C6_7
REMARK    5  A    between atoms: C9_10  and  C10_11
REMARK                            x       y       z     vdW  Elec       q    Type
REMARK                         _______ _______ _______ _____ _____    ______ ____
ROOT
ATOM      1  C4  UNL     1       0.529  -0.193   0.055  0.00  0.00    +0.000 C 
ATOM      2  C5  UNL     1       1.124  -1.486   0.635  0.00  0.00    +0.000 C 
ATOM      3  C6  UNL     1       1.708  -2.450  -0.399  0.00  0.00    +0.000 C 
ATOM      4  C7  UNL     1      -0.089  -2.096   1.342  0.00  0.00    +0.000 C 
ATOM      5  C8  UNL     1      -1.264  -1.842   0.401  0.00  0.00    +0.000 C 
ATOM      6  C9  UNL     1      -0.886  -0.594  -0.424  0.00  0.00    +0.000 C 
ENDROOT
BRANCH   6   7
ATOM      7  C10 UNL     1      -1.872   0.543  -0.323  0.00  0.00    +0.000 C 
ATOM      8  C11 UNL     1      -2.371   1.151  -1.469  0.00  0.00    +0.000 C 
ATOM      9  N1  UNL     1      -3.246   2.184  -1.463  0.00  0.00    +0.000 NA
ATOM     10  C12 UNL     1      -3.651   2.644  -0.261  0.00  0.00    +0.000 C 
ATOM     11  C13 UNL     1      -3.213   2.124   0.939  0.00  0.00    +0.000 C 
ATOM     12  C14 UNL     1      -2.314   1.070   0.889  0.00  0.00    +0.000 C 
ATOM     13  F1  UNL     1      -1.858   0.565   2.044  0.00  0.00    +0.000 F 
ENDBRANCH   6   7
BRANCH   1  14
ATOM     14  C3  UNL     1       1.356   0.448  -1.054  0.00  0.00    +0.000 C 
ATOM     15  O1  UNL     1       1.272   0.076  -2.226  0.00  0.00    +0.000 OA
BRANCH  14  17
ATOM     16  C1  UNL     1       3.468   1.092   0.153  0.00  0.00    +0.000 C 
ATOM     17  C2  UNL     1       2.293   1.576  -0.670  0.00  0.00    +0.000 C 
ENDBRANCH  14  17
ENDBRANCH   1  14
TORSDOF 3
