REMARK  Name = ligantes_elite\Elite_091.pdb
REMARK  5 active torsions:
REMARK  status: ('A' for Active; 'I' for Inactive)
REMARK    1  A    between atoms: C1_2  and  C2_3
REMARK    2  A    between atoms: C6_8  and  C7_9
REMARK    3  A    between atoms: C10_12  and  O1_13
REMARK    4  A    between atoms: C11_14  and  C12_15
REMARK    5  A    between atoms: C12_15  and  C13_17
REMARK                            x       y       z     vdW  Elec       q    Type
REMARK                         _______ _______ _______ _____ _____    ______ ____
ROOT
ATOM      1  C7  UNL     1      -0.231  -0.034  -0.361  0.00  0.00    +0.000 C 
ATOM      2  C8  UNL     1      -0.827  -0.934  -1.459  0.00  0.00    +0.000 C 
ATOM      3  C9  UNL     1       0.340  -1.795  -1.916  0.00  0.00    +0.000 C 
ATOM      4  C10 UNL     1       1.080  -2.094  -0.620  0.00  0.00    +0.000 C 
ATOM      5  C11 UNL     1       1.008  -0.791   0.184  0.00  0.00    +0.000 C 
ENDROOT
BRANCH   1  11
ATOM      6  C2  UNL     1      -1.821   1.624   0.789  0.00  0.00    +0.000 C 
ATOM      7  C3  UNL     1      -2.786   1.897   1.763  0.00  0.00    +0.000 C 
ATOM      8  C4  UNL     1      -3.179   0.873   2.602  0.00  0.00    +0.000 C 
ATOM      9  N2  UNL     1      -2.688  -0.377   2.526  0.00  0.00    +0.000 NA
ATOM     10  C5  UNL     1      -1.752  -0.618   1.579  0.00  0.00    +0.000 C 
ATOM     11  C6  UNL     1      -1.269   0.335   0.682  0.00  0.00    +0.000 C 
BRANCH   6  13
ATOM     12  N1  UNL     1      -1.145   3.538  -0.828  0.00  0.00    +0.000 NA
ATOM     13  C1  UNL     1      -1.440   2.689  -0.094  0.00  0.00    +0.000 C 
ENDBRANCH   6  13
ENDBRANCH   1  11
BRANCH   4  14
ATOM     14  O1  UNL     1       0.385  -3.109   0.108  0.00  0.00    +0.000 OA
ATOM     15  H   UNL     1      -0.526  -2.820   0.276  0.00  0.00    +0.000 HD
ENDBRANCH   4  14
BRANCH   5  16
ATOM     16  C12 UNL     1       2.262   0.038  -0.024  0.00  0.00    +0.000 C 
ATOM     17  O2  UNL     1       3.124  -0.189  -0.867  0.00  0.00    +0.000 OA
BRANCH  16  18
ATOM     18  C13 UNL     1       2.440   1.246   0.904  0.00  0.00    +0.000 C 
ATOM     19  N3  UNL     1       3.614   1.923   0.732  0.00  0.00    +0.000 N 
ATOM     20  O3  UNL     1       1.590   1.554   1.722  0.00  0.00    +0.000 OA
ATOM     21  H   UNL     1       4.260   1.623   0.053  0.00  0.00    +0.000 HD
ATOM     22  H   UNL     1       3.814   2.711   1.287  0.00  0.00    +0.000 HD
ENDBRANCH  16  18
ENDBRANCH   5  16
TORSDOF 5
