REMARK  Name = ligantes_elite\Elite_023.pdb
REMARK  4 active torsions:
REMARK  status: ('A' for Active; 'I' for Inactive)
REMARK    1  A    between atoms: C1_2  and  C2_4
REMARK    2  A    between atoms: C2_4  and  C3_6
REMARK    3  A    between atoms: C7_11  and  C8_12
REMARK    4  A    between atoms: C12_17  and  C13_18
REMARK                            x       y       z     vdW  Elec       q    Type
REMARK                         _______ _______ _______ _____ _____    ______ ____
ROOT
ATOM      1  C3  UNL     1       1.344  -0.256   0.512  0.00  0.00    +0.000 C 
ATOM      2  C4  UNL     1       2.147  -1.559   0.533  0.00  0.00    +0.000 C 
ATOM      3  F1  UNL     1       2.554  -1.766   1.822  0.00  0.00    +0.000 F 
ATOM      4  C5  UNL     1       1.178  -2.678   0.174  0.00  0.00    +0.000 C 
ATOM      5  C6  UNL     1      -0.173  -2.142   0.623  0.00  0.00    +0.000 C 
ATOM      6  C7  UNL     1      -0.112  -0.664   0.207  0.00  0.00    +0.000 C 
ENDROOT
BRANCH   6   7
ATOM      7  C8  UNL     1      -1.152   0.215   0.872  0.00  0.00    +0.000 C 
ATOM      8  C9  UNL     1      -1.278   0.234   2.265  0.00  0.00    +0.000 C 
ATOM      9  N2  UNL     1      -2.172   0.978   2.951  0.00  0.00    +0.000 NA
ATOM     10  C10 UNL     1      -2.986   1.768   2.230  0.00  0.00    +0.000 C 
ATOM     11  C11 UNL     1      -2.947   1.843   0.850  0.00  0.00    +0.000 C 
ATOM     12  C12 UNL     1      -2.016   1.063   0.146  0.00  0.00    +0.000 C 
BRANCH  12  13
ATOM     13  C13 UNL     1      -1.991   1.159  -1.361  0.00  0.00    +0.000 C 
ATOM     14  F2  UNL     1      -0.744   1.415  -1.847  0.00  0.00    +0.000 F 
ATOM     15  F3  UNL     1      -2.783   2.152  -1.857  0.00  0.00    +0.000 F 
ENDBRANCH  12  13
ENDBRANCH   6   7
BRANCH   1  16
ATOM     16  C2  UNL     1       1.897   0.755  -0.468  0.00  0.00    +0.000 C 
ATOM     17  O2  UNL     1       2.189   1.906  -0.151  0.00  0.00    +0.000 OA
BRANCH  16  19
ATOM     18  N1  UNL     1       2.600   1.313  -2.736  0.00  0.00    +0.000 N 
ATOM     19  C1  UNL     1       2.089   0.335  -1.932  0.00  0.00    +0.000 C 
ATOM     20  O1  UNL     1       1.802  -0.784  -2.320  0.00  0.00    +0.000 OA
ATOM     21  H   UNL     1       2.757   1.133  -3.691  0.00  0.00    +0.000 HD
ATOM     22  H   UNL     1       2.812   2.198  -2.361  0.00  0.00    +0.000 HD
ENDBRANCH  16  19
ENDBRANCH   1  16
TORSDOF 4
