REMARK  Name = ligantes_elite\Elite_026.pdb
REMARK  7 active torsions:
REMARK  status: ('A' for Active; 'I' for Inactive)
REMARK    1  A    between atoms: C1_1  and  C2_2
REMARK    2  A    between atoms: C2_2  and  C3_3
REMARK    3  A    between atoms: C2_2  and  C4_4
REMARK    4  A    between atoms: C4_4  and  C5_6
REMARK    5  A    between atoms: C6_7  and  C7_8
REMARK    6  A    between atoms: C10_11  and  C11_12
REMARK    7  A    between atoms: C15_17  and  C16_18
REMARK                            x       y       z     vdW  Elec       q    Type
REMARK                         _______ _______ _______ _____ _____    ______ ____
ROOT
ATOM      1  C5  UNL     1      -0.520   0.511  -0.789  0.00  0.00    +0.000 C 
ATOM      2  C6  UNL     1      -1.195   1.896  -0.630  0.00  0.00    +0.000 C 
ATOM      3  C7  UNL     1      -1.493   2.533  -1.986  0.00  0.00    +0.000 C 
ATOM      4  C8  UNL     1      -0.217   2.750   0.191  0.00  0.00    +0.000 C 
ATOM      5  C9  UNL     1       1.113   2.016   0.120  0.00  0.00    +0.000 C 
ATOM      6  C10 UNL     1       0.696   0.541   0.161  0.00  0.00    +0.000 C 
ENDROOT
BRANCH   6   7
ATOM      7  C11 UNL     1       1.847  -0.386  -0.178  0.00  0.00    +0.000 C 
ATOM      8  C12 UNL     1       2.364  -0.456  -1.472  0.00  0.00    +0.000 C 
ATOM      9  N1  UNL     1       3.394  -1.246  -1.848  0.00  0.00    +0.000 NA
ATOM     10  C13 UNL     1       3.964  -2.012  -0.901  0.00  0.00    +0.000 C 
ATOM     11  C14 UNL     1       3.554  -2.017   0.416  0.00  0.00    +0.000 C 
ATOM     12  C15 UNL     1       2.488  -1.190   0.784  0.00  0.00    +0.000 C 
BRANCH  12  13
ATOM     13  C16 UNL     1       2.088  -1.193   2.162  0.00  0.00    +0.000 C 
ATOM     14  N2  UNL     1       1.746  -1.194   3.271  0.00  0.00    +0.000 NA
ENDBRANCH  12  13
ENDBRANCH   6   7
BRANCH   1  15
ATOM     15  C4  UNL     1      -1.539  -0.617  -0.605  0.00  0.00    +0.000 C 
ATOM     16  O1  UNL     1      -2.284  -0.895  -1.551  0.00  0.00    +0.000 OA
BRANCH  15  18
ATOM     17  C1  UNL     1      -2.432  -2.656   0.566  0.00  0.00    +0.000 C 
ATOM     18  C2  UNL     1      -1.682  -1.333   0.738  0.00  0.00    +0.000 C 
ATOM     19  C3  UNL     1      -2.405  -0.451   1.749  0.00  0.00    +0.000 C 
ENDBRANCH  15  18
ENDBRANCH   1  15
TORSDOF 4
