REMARK  Name = ligantes_elite\Elite_101.pdb
REMARK  4 active torsions:
REMARK  status: ('A' for Active; 'I' for Inactive)
REMARK    1  A    between atoms: N1_1  and  C1_2
REMARK    2  A    between atoms: C5_7  and  C6_8
REMARK    3  A    between atoms: C10_13  and  C11_14
REMARK    4  A    between atoms: C11_14  and  C12_16
REMARK                            x       y       z     vdW  Elec       q    Type
REMARK                         _______ _______ _______ _____ _____    ______ ____
ROOT
ATOM      1  C6  UNL     1       0.789  -1.020  -0.750  0.00  0.00    +0.000 C 
ATOM      2  C7  UNL     1       0.698  -2.400  -0.073  0.00  0.00    +0.000 C 
ATOM      3  C8  UNL     1      -0.315  -3.142  -0.935  0.00  0.00    +0.000 C 
ATOM      4  C9  UNL     1      -1.403  -2.099  -1.123  0.00  0.00    +0.000 C 
ATOM      5  F1  UNL     1      -2.165  -2.103   0.002  0.00  0.00    +0.000 F 
ATOM      6  C10 UNL     1      -0.653  -0.773  -1.271  0.00  0.00    +0.000 C 
ENDROOT
BRANCH   1  12
ATOM      7  C1  UNL     1       1.721   1.355  -0.590  0.00  0.00    +0.000 C 
ATOM      8  C2  UNL     1       2.255   2.384   0.189  0.00  0.00    +0.000 C 
ATOM      9  C3  UNL     1       2.627   2.117   1.492  0.00  0.00    +0.000 C 
ATOM     10  N2  UNL     1       2.477   0.914   2.073  0.00  0.00    +0.000 NA
ATOM     11  C4  UNL     1       1.909  -0.055   1.320  0.00  0.00    +0.000 C 
ATOM     12  C5  UNL     1       1.472   0.102   0.001  0.00  0.00    +0.000 C 
BRANCH   7  13
ATOM     13  N1  UNL     1       1.264   1.698  -1.876  0.00  0.00    +0.000 N 
ATOM     14  H   UNL     1       1.463   2.587  -2.248  0.00  0.00    +0.000 HD
ATOM     15  H   UNL     1       0.745   1.048  -2.404  0.00  0.00    +0.000 HD
ENDBRANCH   7  13
ENDBRANCH   1  12
BRANCH   6  16
ATOM     16  C11 UNL     1      -1.408   0.403  -0.684  0.00  0.00    +0.000 C 
ATOM     17  O1  UNL     1      -1.775   1.329  -1.408  0.00  0.00    +0.000 OA
BRANCH  16  18
ATOM     18  C12 UNL     1      -1.645   0.456   0.790  0.00  0.00    +0.000 C 
ATOM     19  C13 UNL     1      -2.863   1.160   1.339  0.00  0.00    +0.000 C 
ATOM     20  C14 UNL     1      -1.503   1.768   1.526  0.00  0.00    +0.000 C 
ENDBRANCH  16  18
ENDBRANCH   6  16
TORSDOF 4
