REMARK  Name = ligantes_elite\Elite_097.pdb
REMARK  4 active torsions:
REMARK  status: ('A' for Active; 'I' for Inactive)
REMARK    1  A    between atoms: C1_2  and  C2_3
REMARK    2  A    between atoms: C6_8  and  C7_9
REMARK    3  A    between atoms: C11_14  and  C12_15
REMARK    4  A    between atoms: C12_15  and  C13_17
REMARK                            x       y       z     vdW  Elec       q    Type
REMARK                         _______ _______ _______ _____ _____    ______ ____
ROOT
ATOM      1  C7  UNL     1       0.760  -0.789   0.216  0.00  0.00    +0.000 C 
ATOM      2  C8  UNL     1       0.581  -2.322   0.100  0.00  0.00    +0.000 C 
ATOM      3  C9  UNL     1      -0.766  -2.564  -0.588  0.00  0.00    +0.000 C 
ATOM      4  C10 UNL     1      -1.297  -1.186  -0.946  0.00  0.00    +0.000 C 
ATOM      5  F1  UNL     1      -2.646  -1.153  -0.905  0.00  0.00    +0.000 F 
ATOM      6  C11 UNL     1      -0.671  -0.235   0.058  0.00  0.00    +0.000 C 
ENDROOT
BRANCH   1  12
ATOM      7  C2  UNL     1       2.309   1.105  -0.541  0.00  0.00    +0.000 C 
ATOM      8  C3  UNL     1       3.173   1.677  -1.480  0.00  0.00    +0.000 C 
ATOM      9  C4  UNL     1       3.415   0.988  -2.650  0.00  0.00    +0.000 C 
ATOM     10  N2  UNL     1       2.858  -0.204  -2.934  0.00  0.00    +0.000 NA
ATOM     11  C5  UNL     1       2.031  -0.742  -2.008  0.00  0.00    +0.000 C 
ATOM     12  C6  UNL     1       1.714  -0.149  -0.788  0.00  0.00    +0.000 C 
BRANCH   7  14
ATOM     13  N1  UNL     1       1.787   2.458   1.612  0.00  0.00    +0.000 NA
ATOM     14  C1  UNL     1       2.036   1.849   0.656  0.00  0.00    +0.000 C 
ENDBRANCH   7  14
ENDBRANCH   1  12
BRANCH   6  15
ATOM     15  C12 UNL     1      -1.435  -0.263   1.371  0.00  0.00    +0.000 C 
ATOM     16  O1  UNL     1      -1.186  -1.036   2.289  0.00  0.00    +0.000 OA
BRANCH  15  17
ATOM     17  C13 UNL     1      -2.558   0.707   1.488  0.00  0.00    +0.000 C 
ATOM     18  C14 UNL     1      -2.275   2.180   1.665  0.00  0.00    +0.000 C 
ATOM     19  C15 UNL     1      -2.832   1.387   2.809  0.00  0.00    +0.000 C 
ENDBRANCH  15  17
ENDBRANCH   6  15
TORSDOF 4
