REMARK  Name = ligantes_elite\Elite_178.pdb
REMARK  7 active torsions:
REMARK  status: ('A' for Active; 'I' for Inactive)
REMARK    1  A    between atoms: C1_1  and  C2_2
REMARK    2  A    between atoms: C2_2  and  C3_3
REMARK    3  A    between atoms: C2_2  and  C4_4
REMARK    4  A    between atoms: C4_4  and  C5_6
REMARK    5  A    between atoms: C6_7  and  C7_8
REMARK    6  A    between atoms: C10_12  and  C11_13
REMARK    7  A    between atoms: C15_18  and  C16_19
REMARK                            x       y       z     vdW  Elec       q    Type
REMARK                         _______ _______ _______ _____ _____    ______ ____
ROOT
ATOM      1  C5  UNL     1      -0.575  -0.903  -0.275  0.00  0.00    +0.000 C 
ATOM      2  C6  UNL     1      -0.816  -2.408  -0.476  0.00  0.00    +0.000 C 
ATOM      3  C8  UNL     1      -0.292  -3.044   0.816  0.00  0.00    +0.000 C 
ATOM      4  C9  UNL     1       0.812  -2.105   1.328  0.00  0.00    +0.000 C 
ATOM      5  C10 UNL     1       0.838  -0.914   0.346  0.00  0.00    +0.000 C 
ENDROOT
BRANCH   5   6
ATOM      6  C11 UNL     1       1.357   0.431   0.810  0.00  0.00    +0.000 C 
ATOM      7  C12 UNL     1       1.220   0.845   2.138  0.00  0.00    +0.000 C 
ATOM      8  N1  UNL     1       1.626   2.040   2.624  0.00  0.00    +0.000 NA
ATOM      9  C13 UNL     1       2.179   2.889   1.745  0.00  0.00    +0.000 C 
ATOM     10  C14 UNL     1       2.350   2.593   0.405  0.00  0.00    +0.000 C 
ATOM     11  C15 UNL     1       1.955   1.341  -0.099  0.00  0.00    +0.000 C 
BRANCH  11  12
ATOM     12  C16 UNL     1       2.139   1.040  -1.577  0.00  0.00    +0.000 C 
ATOM     13  C17 UNL     1       3.391   1.476  -2.309  0.00  0.00    +0.000 C 
ATOM     14  C18 UNL     1       3.170   0.026  -2.020  0.00  0.00    +0.000 C 
ENDBRANCH  11  12
ENDBRANCH   5   6
BRANCH   1  15
ATOM     15  C4  UNL     1      -1.621  -0.231   0.627  0.00  0.00    +0.000 C 
ATOM     16  O1  UNL     1      -1.646  -0.424   1.843  0.00  0.00    +0.000 OA
BRANCH  15  18
ATOM     17  C1  UNL     1      -3.895   0.841   0.775  0.00  0.00    +0.000 C 
ATOM     18  C2  UNL     1      -2.625   0.694  -0.060  0.00  0.00    +0.000 C 
ATOM     19  C3  UNL     1      -1.984   2.053  -0.312  0.00  0.00    +0.000 C 
ENDBRANCH  15  18
ENDBRANCH   1  15
BRANCH   2  20
ATOM     20  C7  UNL     1      -2.230  -2.823  -0.848  0.00  0.00    +0.000 C 
ATOM     21  F1  UNL     1      -3.109  -2.437   0.107  0.00  0.00    +0.000 F 
ENDBRANCH   2  20
TORSDOF 5
