REMARK  Name = ligantes_elite\Elite_171.pdb
REMARK  6 active torsions:
REMARK  status: ('A' for Active; 'I' for Inactive)
REMARK    1  A    between atoms: C1_1  and  C2_2
REMARK    2  A    between atoms: C2_2  and  C3_3
REMARK    3  A    between atoms: C3_3  and  C4_4
REMARK    4  A    between atoms: C4_4  and  C5_6
REMARK    5  A    between atoms: C6_7  and  O2_8
REMARK    6  A    between atoms: C9_11  and  C10_12
REMARK                            x       y       z     vdW  Elec       q    Type
REMARK                         _______ _______ _______ _____ _____    ______ ____
ROOT
ATOM      1  C5  UNL     1       0.454  -0.386  -1.024  0.00  0.00    +0.000 C 
ATOM      2  C6  UNL     1       0.623  -1.269  -2.266  0.00  0.00    +0.000 C 
ATOM      3  C7  UNL     1      -0.273  -2.477  -2.027  0.00  0.00    +0.000 C 
ATOM      4  C8  UNL     1      -1.478  -1.880  -1.316  0.00  0.00    +0.000 C 
ATOM      5  C9  UNL     1      -0.863  -0.850  -0.352  0.00  0.00    +0.000 C 
ENDROOT
BRANCH   5   6
ATOM      6  C10 UNL     1      -1.814   0.282  -0.021  0.00  0.00    +0.000 C 
ATOM      7  C11 UNL     1      -2.245   1.147  -1.030  0.00  0.00    +0.000 C 
ATOM      8  N1  UNL     1      -3.085   2.192  -0.849  0.00  0.00    +0.000 NA
ATOM      9  C12 UNL     1      -3.540   2.399   0.400  0.00  0.00    +0.000 C 
ATOM     10  C13 UNL     1      -3.189   1.611   1.477  0.00  0.00    +0.000 C 
ATOM     11  C14 UNL     1      -2.317   0.543   1.260  0.00  0.00    +0.000 C 
ATOM     12 BR1  UNL     1      -1.868  -0.501   2.784  0.00  0.00    +0.000 Br
ENDBRANCH   5   6
BRANCH   1  13
ATOM     13  C4  UNL     1       1.615  -0.571  -0.055  0.00  0.00    +0.000 C 
ATOM     14  O1  UNL     1       2.246  -1.627   0.000  0.00  0.00    +0.000 OA
BRANCH  13  15
ATOM     15  C3  UNL     1       1.922   0.609   0.854  0.00  0.00    +0.000 C 
BRANCH  15  17
ATOM     16  C1  UNL     1       3.272   1.475   2.793  0.00  0.00    +0.000 C 
ATOM     17  C2  UNL     1       3.000   0.288   1.884  0.00  0.00    +0.000 C 
ENDBRANCH  15  17
ENDBRANCH  13  15
ENDBRANCH   1  13
BRANCH   2  18
ATOM     18  O2  UNL     1       0.144  -0.540  -3.399  0.00  0.00    +0.000 OA
ATOM     19  H   UNL     1      -0.777  -0.277  -3.248  0.00  0.00    +0.000 HD
ENDBRANCH   2  18
TORSDOF 5
