REMARK  Name = ligantes_elite\Elite_116.pdb
REMARK  5 active torsions:
REMARK  status: ('A' for Active; 'I' for Inactive)
REMARK    1  A    between atoms: C1_1  and  O1_2
REMARK    2  A    between atoms: O1_2  and  C2_3
REMARK    3  A    between atoms: C2_3  and  C3_5
REMARK    4  A    between atoms: C7_10  and  C8_11
REMARK    5  A    between atoms: C12_16  and  C13_17
REMARK                            x       y       z     vdW  Elec       q    Type
REMARK                         _______ _______ _______ _____ _____    ______ ____
ROOT
ATOM      1  C3  UNL     1       1.258  -0.410   0.593  0.00  0.00    +0.000 C 
ATOM      2  C4  UNL     1       2.199  -1.588   0.782  0.00  0.00    +0.000 C 
ATOM      3  F1  UNL     1       3.416  -1.211   1.223  0.00  0.00    +0.000 F 
ATOM      4  C5  UNL     1       2.283  -2.235  -0.586  0.00  0.00    +0.000 C 
ATOM      5  C6  UNL     1       0.845  -2.181  -1.081  0.00  0.00    +0.000 C 
ATOM      6  C7  UNL     1       0.250  -0.881  -0.483  0.00  0.00    +0.000 C 
ENDROOT
BRANCH   6   7
ATOM      7  C8  UNL     1      -1.156  -1.032   0.076  0.00  0.00    +0.000 C 
ATOM      8  C9  UNL     1      -1.469  -2.077   0.953  0.00  0.00    +0.000 C 
ATOM      9  N1  UNL     1      -2.685  -2.296   1.495  0.00  0.00    +0.000 NA
ATOM     10  C10 UNL     1      -3.655  -1.433   1.151  0.00  0.00    +0.000 C 
ATOM     11  C11 UNL     1      -3.455  -0.354   0.308  0.00  0.00    +0.000 C 
ATOM     12  C12 UNL     1      -2.182  -0.110  -0.236  0.00  0.00    +0.000 C 
BRANCH  12  13
ATOM     13  C13 UNL     1      -1.967   1.088  -1.142  0.00  0.00    +0.000 C 
ATOM     14  C14 UNL     1      -2.589   2.431  -0.830  0.00  0.00    +0.000 C 
ATOM     15  C15 UNL     1      -1.115   2.242  -0.659  0.00  0.00    +0.000 C 
ENDBRANCH  12  13
ENDBRANCH   6   7
BRANCH   1  16
ATOM     16  C2  UNL     1       2.034   0.800   0.121  0.00  0.00    +0.000 C 
ATOM     17  O2  UNL     1       2.396   0.996  -1.032  0.00  0.00    +0.000 OA
BRANCH  16  19
ATOM     18  C1  UNL     1       3.019   2.807   0.817  0.00  0.00    +0.000 C 
ATOM     19  O1  UNL     1       2.266   1.645   1.165  0.00  0.00    +0.000 OA
ENDBRANCH  16  19
ENDBRANCH   1  16
TORSDOF 4
