REMARK  Name = ligantes_elite\Elite_117.pdb
REMARK  5 active torsions:
REMARK  status: ('A' for Active; 'I' for Inactive)
REMARK    1  A    between atoms: C1_1  and  C2_2
REMARK    2  A    between atoms: C2_2  and  C3_3
REMARK    3  A    between atoms: C3_3  and  C4_5
REMARK    4  A    between atoms: C5_6  and  C6_7
REMARK    5  A    between atoms: C9_11  and  C10_12
REMARK                            x       y       z     vdW  Elec       q    Type
REMARK                         _______ _______ _______ _____ _____    ______ ____
ROOT
ATOM      1  C4  UNL     1      -0.734   0.467  -0.123  0.00  0.00    +0.000 C 
ATOM      2  C5  UNL     1      -1.392   1.855  -0.117  0.00  0.00    +0.000 C 
ATOM      3  C7  UNL     1      -0.192   2.796  -0.115  0.00  0.00    +0.000 C 
ATOM      4  C8  UNL     1       0.754   2.151   0.891  0.00  0.00    +0.000 C 
ATOM      5  C9  UNL     1       0.509   0.627   0.786  0.00  0.00    +0.000 C 
ENDROOT
BRANCH   5   6
ATOM      6  C10 UNL     1       1.710  -0.142   0.268  0.00  0.00    +0.000 C 
ATOM      7  C11 UNL     1       2.332   0.243  -0.921  0.00  0.00    +0.000 C 
ATOM      8  N1  UNL     1       3.389  -0.383  -1.484  0.00  0.00    +0.000 NA
ATOM      9  C12 UNL     1       3.881  -1.454  -0.833  0.00  0.00    +0.000 C 
ATOM     10  C13 UNL     1       3.354  -1.930   0.350  0.00  0.00    +0.000 C 
ATOM     11  C14 UNL     1       2.257  -1.268   0.901  0.00  0.00    +0.000 C 
ATOM     12 BR1  UNL     1       1.564  -1.988   2.518  0.00  0.00    +0.000 Br
ENDBRANCH   5   6
BRANCH   1  13
ATOM     13  C3  UNL     1      -1.664  -0.618   0.407  0.00  0.00    +0.000 C 
ATOM     14  O1  UNL     1      -2.504  -0.377   1.271  0.00  0.00    +0.000 OA
BRANCH  13  16
ATOM     15  C1  UNL     1      -2.302  -3.060   0.534  0.00  0.00    +0.000 C 
ATOM     16  C2  UNL     1      -1.502  -2.001  -0.203  0.00  0.00    +0.000 C 
ENDBRANCH  13  16
ENDBRANCH   1  13
BRANCH   2  17
ATOM     17  C6  UNL     1      -2.322   2.085  -1.296  0.00  0.00    +0.000 C 
ATOM     18  F1  UNL     1      -2.808   3.353  -1.232  0.00  0.00    +0.000 F 
ENDBRANCH   2  17
TORSDOF 4
