REMARK  Name = ligantes_elite\Elite_057.pdb
REMARK  6 active torsions:
REMARK  status: ('A' for Active; 'I' for Inactive)
REMARK    1  A    between atoms: C1_1  and  C2_2
REMARK    2  A    between atoms: C2_2  and  C3_3
REMARK    3  A    between atoms: C3_3  and  C4_5
REMARK    4  A    between atoms: C5_6  and  C6_7
REMARK    5  A    between atoms: C9_11  and  C10_12
REMARK    6  A    between atoms: C14_17  and  C15_18
REMARK                            x       y       z     vdW  Elec       q    Type
REMARK                         _______ _______ _______ _____ _____    ______ ____
ROOT
ATOM      1  C4  UNL     1      -0.764   0.895   0.112  0.00  0.00    +0.000 C 
ATOM      2  C5  UNL     1      -1.333   2.122  -0.645  0.00  0.00    +0.000 C 
ATOM      3  C7  UNL     1      -0.868   1.947  -2.094  0.00  0.00    +0.000 C 
ATOM      4  C8  UNL     1       0.449   1.196  -1.991  0.00  0.00    +0.000 C 
ATOM      5  C9  UNL     1       0.188   0.177  -0.875  0.00  0.00    +0.000 C 
ENDROOT
BRANCH   5   6
ATOM      6  C10 UNL     1       1.458  -0.354  -0.239  0.00  0.00    +0.000 C 
ATOM      7  C11 UNL     1       2.353   0.521   0.386  0.00  0.00    +0.000 C 
ATOM      8  N1  UNL     1       3.503   0.150   0.990  0.00  0.00    +0.000 NA
ATOM      9  C12 UNL     1       3.800  -1.161   0.978  0.00  0.00    +0.000 C 
ATOM     10  C13 UNL     1       2.995  -2.119   0.389  0.00  0.00    +0.000 C 
ATOM     11  C14 UNL     1       1.800  -1.723  -0.232  0.00  0.00    +0.000 C 
BRANCH  11  12
ATOM     12  C15 UNL     1       0.929  -2.784  -0.863  0.00  0.00    +0.000 C 
ATOM     13  F2  UNL     1      -0.320  -2.811  -0.321  0.00  0.00    +0.000 F 
ATOM     14  F3  UNL     1       1.418  -4.048  -0.711  0.00  0.00    +0.000 F 
ENDBRANCH  11  12
ENDBRANCH   5   6
BRANCH   1  15
ATOM     15  C3  UNL     1      -1.876  -0.064   0.533  0.00  0.00    +0.000 C 
ATOM     16  O1  UNL     1      -2.878  -0.225  -0.164  0.00  0.00    +0.000 OA
BRANCH  15  18
ATOM     17  C1  UNL     1      -2.741  -1.847   2.101  0.00  0.00    +0.000 C 
ATOM     18  C2  UNL     1      -1.666  -0.806   1.842  0.00  0.00    +0.000 C 
ENDBRANCH  15  18
ENDBRANCH   1  15
BRANCH   2  19
ATOM     19  C6  UNL     1      -0.829   3.427  -0.034  0.00  0.00    +0.000 C 
ATOM     20  F1  UNL     1       0.529   3.421   0.008  0.00  0.00    +0.000 F 
ENDBRANCH   2  19
TORSDOF 5
