REMARK  Name = ligantes_elite\Elite_050.pdb
REMARK  6 active torsions:
REMARK  status: ('A' for Active; 'I' for Inactive)
REMARK    1  A    between atoms: C1_1  and  C2_2
REMARK    2  A    between atoms: C2_2  and  C3_3
REMARK    3  A    between atoms: C3_3  and  C4_5
REMARK    4  A    between atoms: C5_6  and  C6_7
REMARK    5  A    between atoms: C9_11  and  C10_12
REMARK    6  A    between atoms: C14_17  and  C15_18
REMARK                            x       y       z     vdW  Elec       q    Type
REMARK                         _______ _______ _______ _____ _____    ______ ____
ROOT
ATOM      1  C4  UNL     1      -0.570  -0.695   0.314  0.00  0.00    +0.000 C 
ATOM      2  C5  UNL     1      -1.241  -2.055   0.067  0.00  0.00    +0.000 C 
ATOM      3  C7  UNL     1      -0.666  -2.519  -1.274  0.00  0.00    +0.000 C 
ATOM      4  C8  UNL     1       0.709  -1.845  -1.398  0.00  0.00    +0.000 C 
ATOM      5  C9  UNL     1       0.881  -0.993  -0.118  0.00  0.00    +0.000 C 
ENDROOT
BRANCH   5   6
ATOM      6  C10 UNL     1       1.823   0.195  -0.116  0.00  0.00    +0.000 C 
ATOM      7  C11 UNL     1       2.295   0.747  -1.311  0.00  0.00    +0.000 C 
ATOM      8  N1  UNL     1       3.148   1.795  -1.406  0.00  0.00    +0.000 NA
ATOM      9  C12 UNL     1       3.554   2.353  -0.256  0.00  0.00    +0.000 C 
ATOM     10  C13 UNL     1       3.145   1.908   0.987  0.00  0.00    +0.000 C 
ATOM     11  C14 UNL     1       2.274   0.807   1.077  0.00  0.00    +0.000 C 
BRANCH  11  12
ATOM     12  C15 UNL     1       1.837   0.406   2.466  0.00  0.00    +0.000 C 
ATOM     13  F2  UNL     1       1.487  -0.901   2.607  0.00  0.00    +0.000 F 
ENDBRANCH  11  12
ENDBRANCH   5   6
BRANCH   1  14
ATOM     14  C3  UNL     1      -1.192   0.462  -0.479  0.00  0.00    +0.000 C 
ATOM     15  O1  UNL     1      -1.000   0.605  -1.686  0.00  0.00    +0.000 OA
BRANCH  14  17
ATOM     16  C1  UNL     1      -2.724   2.472  -0.554  0.00  0.00    +0.000 C 
ATOM     17  C2  UNL     1      -2.050   1.430   0.320  0.00  0.00    +0.000 C 
ENDBRANCH  14  17
ENDBRANCH   1  14
BRANCH   2  18
ATOM     18  C6  UNL     1      -2.758  -2.084   0.137  0.00  0.00    +0.000 C 
ATOM     19  F1  UNL     1      -3.294  -1.236  -0.774  0.00  0.00    +0.000 F 
ENDBRANCH   2  18
TORSDOF 5
