REMARK  Name = ligantes_elite\Elite_172.pdb
REMARK  5 active torsions:
REMARK  status: ('A' for Active; 'I' for Inactive)
REMARK    1  A    between atoms: C1_1  and  O1_2
REMARK    2  A    between atoms: O1_2  and  C2_3
REMARK    3  A    between atoms: C2_3  and  C3_5
REMARK    4  A    between atoms: C7_10  and  C8_11
REMARK    5  A    between atoms: C12_16  and  N2_17
REMARK                            x       y       z     vdW  Elec       q    Type
REMARK                         _______ _______ _______ _____ _____    ______ ____
ROOT
ATOM      1  C3  UNL     1       1.149  -0.647  -0.666  0.00  0.00    +0.000 C 
ATOM      2  C4  UNL     1       1.875  -1.904  -0.218  0.00  0.00    +0.000 C 
ATOM      3  F1  UNL     1       3.216  -1.760  -0.240  0.00  0.00    +0.000 F 
ATOM      4  C5  UNL     1       1.365  -2.169   1.189  0.00  0.00    +0.000 C 
ATOM      5  C6  UNL     1      -0.045  -1.568   1.225  0.00  0.00    +0.000 C 
ATOM      6  C7  UNL     1      -0.287  -0.922  -0.164  0.00  0.00    +0.000 C 
ENDROOT
BRANCH   6   7
ATOM      7  C8  UNL     1      -1.329   0.182  -0.229  0.00  0.00    +0.000 C 
ATOM      8  C9  UNL     1      -1.081   1.377  -0.913  0.00  0.00    +0.000 C 
ATOM      9  N1  UNL     1      -1.927   2.431  -0.990  0.00  0.00    +0.000 NA
ATOM     10  C10 UNL     1      -3.094   2.308  -0.340  0.00  0.00    +0.000 C 
ATOM     11  C11 UNL     1      -3.475   1.158   0.323  0.00  0.00    +0.000 C 
ATOM     12  C12 UNL     1      -2.621   0.050   0.315  0.00  0.00    +0.000 C 
BRANCH  12  13
ATOM     13  N2  UNL     1      -3.037  -1.103   1.001  0.00  0.00    +0.000 N 
ATOM     14  H   UNL     1      -2.461  -1.901   1.016  0.00  0.00    +0.000 HD
ATOM     15  H   UNL     1      -3.904  -1.113   1.467  0.00  0.00    +0.000 HD
ENDBRANCH  12  13
ENDBRANCH   6   7
BRANCH   1  16
ATOM     16  C2  UNL     1       1.835   0.556  -0.043  0.00  0.00    +0.000 C 
ATOM     17  O2  UNL     1       1.734   0.906   1.123  0.00  0.00    +0.000 OA
BRANCH  16  19
ATOM     18  C1  UNL     1       3.267   2.352  -0.499  0.00  0.00    +0.000 C 
ATOM     19  O1  UNL     1       2.574   1.203  -0.990  0.00  0.00    +0.000 OA
ENDBRANCH  16  19
ENDBRANCH   1  16
TORSDOF 4
