REMARK  Name = ligantes_elite\Elite_042.pdb
REMARK  5 active torsions:
REMARK  status: ('A' for Active; 'I' for Inactive)
REMARK    1  A    between atoms: C1_1  and  C2_2
REMARK    2  A    between atoms: C5_5  and  C6_6
REMARK    3  A    between atoms: C10_11  and  C11_12
REMARK    4  A    between atoms: C14_15  and  C15_16
REMARK    5  A    between atoms: C15_16  and  C16_18
REMARK                            x       y       z     vdW  Elec       q    Type
REMARK                         _______ _______ _______ _____ _____    ______ ____
ROOT
ATOM      1  C1  UNL     1      -2.824  -3.015  -0.501  0.00  0.00    +0.000 C 
ATOM      2  C2  UNL     1      -1.654  -2.252   0.110  0.00  0.00    +0.000 C 
ATOM      3  C3  UNL     1      -0.334  -3.032   0.013  0.00  0.00    +0.000 C 
ATOM      4  C4  UNL     1       0.704  -2.056  -0.540  0.00  0.00    +0.000 C 
ATOM      5  C5  UNL     1       0.115  -0.661  -0.295  0.00  0.00    +0.000 C 
ATOM      6  C14 UNL     1      -1.376  -0.914  -0.595  0.00  0.00    +0.000 C 
ENDROOT
BRANCH   5   7
ATOM      7  C6  UNL     1       0.843   0.420  -1.071  0.00  0.00    +0.000 C 
ATOM      8  C7  UNL     1       0.305   0.976  -2.237  0.00  0.00    +0.000 C 
ATOM      9  N1  UNL     1       0.904   1.921  -2.994  0.00  0.00    +0.000 NA
ATOM     10  C8  UNL     1       2.112   2.339  -2.589  0.00  0.00    +0.000 C 
ATOM     11  C9  UNL     1       2.742   1.861  -1.454  0.00  0.00    +0.000 C 
ATOM     12  C10 UNL     1       2.113   0.893  -0.651  0.00  0.00    +0.000 C 
BRANCH  12  13
ATOM     13  C11 UNL     1       2.832   0.375   0.583  0.00  0.00    +0.000 C 
ATOM     14  C12 UNL     1       2.298   0.673   1.965  0.00  0.00    +0.000 C 
ATOM     15  C13 UNL     1       3.561   1.329   1.507  0.00  0.00    +0.000 C 
ENDBRANCH  12  13
ENDBRANCH   5   7
BRANCH   6  16
ATOM     16  C15 UNL     1      -2.331   0.176  -0.138  0.00  0.00    +0.000 C 
ATOM     17  O1  UNL     1      -3.345   0.443  -0.778  0.00  0.00    +0.000 OA
BRANCH  16  18
ATOM     18  C16 UNL     1      -2.037   0.893   1.136  0.00  0.00    +0.000 C 
ATOM     19  C17 UNL     1      -2.879   2.072   1.567  0.00  0.00    +0.000 C 
ATOM     20  C18 UNL     1      -1.479   2.297   1.081  0.00  0.00    +0.000 C 
ENDBRANCH  16  18
ENDBRANCH   6  16
TORSDOF 4
