REMARK  Name = ligantes_elite\Elite_063.pdb
REMARK  5 active torsions:
REMARK  status: ('A' for Active; 'I' for Inactive)
REMARK    1  A    between atoms: C1_1  and  O1_2
REMARK    2  A    between atoms: O1_2  and  C2_3
REMARK    3  A    between atoms: C2_3  and  C3_5
REMARK    4  A    between atoms: C4_6  and  C5_7
REMARK    5  A    between atoms: C8_10  and  C9_11
REMARK                            x       y       z     vdW  Elec       q    Type
REMARK                         _______ _______ _______ _____ _____    ______ ____
ROOT
ATOM      1  C3  UNL     1      -0.633   0.054  -0.541  0.00  0.00    +0.000 C 
ATOM      2  C4  UNL     1      -1.136  -1.376  -0.814  0.00  0.00    +0.000 C 
ATOM      3  C5  UNL     1      -2.614  -1.523  -1.143  0.00  0.00    +0.000 C 
ATOM      4  C6  UNL     1      -0.711  -2.165   0.421  0.00  0.00    +0.000 C 
ATOM      5  C7  UNL     1       0.680  -1.618   0.710  0.00  0.00    +0.000 C 
ATOM      6  C8  UNL     1       0.591  -0.110   0.399  0.00  0.00    +0.000 C 
ENDROOT
BRANCH   6   7
ATOM      7  C9  UNL     1       1.870   0.447  -0.176  0.00  0.00    +0.000 C 
ATOM      8  C10 UNL     1       2.424  -0.007  -1.367  0.00  0.00    +0.000 C 
ATOM      9  N1  UNL     1       3.565   0.476  -1.911  0.00  0.00    +0.000 NA
ATOM     10  C11 UNL     1       4.196   1.465  -1.244  0.00  0.00    +0.000 C 
ATOM     11  C12 UNL     1       3.737   1.994  -0.056  0.00  0.00    +0.000 C 
ATOM     12  C13 UNL     1       2.565   1.470   0.467  0.00  0.00    +0.000 C 
ATOM     13  F1  UNL     1       2.100   1.972   1.621  0.00  0.00    +0.000 F 
ENDBRANCH   6   7
BRANCH   1  14
ATOM     14  C2  UNL     1      -1.673   0.984   0.065  0.00  0.00    +0.000 C 
ATOM     15  O2  UNL     1      -2.113   1.968  -0.516  0.00  0.00    +0.000 OA
BRANCH  14  17
ATOM     16  C1  UNL     1      -3.042   1.417   1.913  0.00  0.00    +0.000 C 
ATOM     17  O1  UNL     1      -2.060   0.578   1.304  0.00  0.00    +0.000 OA
ENDBRANCH  14  17
ENDBRANCH   1  14
TORSDOF 3
