REMARK  Name = ligantes_elite\Elite_055.pdb
REMARK  7 active torsions:
REMARK  status: ('A' for Active; 'I' for Inactive)
REMARK    1  A    between atoms: C1_1  and  C2_2
REMARK    2  A    between atoms: C2_2  and  C3_3
REMARK    3  A    between atoms: C2_2  and  C4_4
REMARK    4  A    between atoms: C4_4  and  C5_6
REMARK    5  A    between atoms: C6_7  and  O2_8
REMARK    6  A    between atoms: C9_11  and  C10_12
REMARK    7  A    between atoms: C14_17  and  C15_18
REMARK                            x       y       z     vdW  Elec       q    Type
REMARK                         _______ _______ _______ _____ _____    ______ ____
ROOT
ATOM      1  C5  UNL     1       1.132  -1.223  -0.126  0.00  0.00    +0.000 C 
ATOM      2  C6  UNL     1       1.635  -2.591   0.345  0.00  0.00    +0.000 C 
ATOM      3  C7  UNL     1       0.616  -3.528  -0.293  0.00  0.00    +0.000 C 
ATOM      4  C8  UNL     1      -0.725  -2.820  -0.068  0.00  0.00    +0.000 C 
ATOM      5  C9  UNL     1      -0.394  -1.315   0.081  0.00  0.00    +0.000 C 
ENDROOT
BRANCH   5   6
ATOM      6  C10 UNL     1      -1.164  -0.408  -0.860  0.00  0.00    +0.000 C 
ATOM      7  C11 UNL     1      -1.193  -0.680  -2.233  0.00  0.00    +0.000 C 
ATOM      8  N1  UNL     1      -1.785   0.097  -3.164  0.00  0.00    +0.000 NA
ATOM      9  C12 UNL     1      -2.391   1.208  -2.713  0.00  0.00    +0.000 C 
ATOM     10  C13 UNL     1      -2.430   1.571  -1.378  0.00  0.00    +0.000 C 
ATOM     11  C14 UNL     1      -1.823   0.757  -0.406  0.00  0.00    +0.000 C 
BRANCH  11  12
ATOM     12  C15 UNL     1      -1.858   1.170   1.053  0.00  0.00    +0.000 C 
ATOM     13  C16 UNL     1      -3.109   1.757   1.670  0.00  0.00    +0.000 C 
ATOM     14  C17 UNL     1      -2.686   0.370   2.035  0.00  0.00    +0.000 C 
ENDBRANCH  11  12
ENDBRANCH   5   6
BRANCH   1  15
ATOM     15  C4  UNL     1       1.785  -0.091   0.648  0.00  0.00    +0.000 C 
ATOM     16  O1  UNL     1       1.666  -0.024   1.874  0.00  0.00    +0.000 OA
BRANCH  15  18
ATOM     17  C1  UNL     1       3.535   1.713   0.798  0.00  0.00    +0.000 C 
ATOM     18  C2  UNL     1       2.640   0.902  -0.138  0.00  0.00    +0.000 C 
ATOM     19  C3  UNL     1       1.766   1.830  -0.971  0.00  0.00    +0.000 C 
ENDBRANCH  15  18
ENDBRANCH   1  15
BRANCH   2  20
ATOM     20  O2  UNL     1       1.556  -2.780   1.755  0.00  0.00    +0.000 OA
ATOM     21  H   UNL     1       0.638  -2.662   2.046  0.00  0.00    +0.000 HD
ENDBRANCH   2  20
TORSDOF 5
