REMARK  Name = ligantes_elite\Elite_051.pdb
REMARK  6 active torsions:
REMARK  status: ('A' for Active; 'I' for Inactive)
REMARK    1  A    between atoms: C1_1  and  O1_2
REMARK    2  A    between atoms: O1_2  and  C2_3
REMARK    3  A    between atoms: C2_3  and  C3_5
REMARK    4  A    between atoms: C4_6  and  C5_7
REMARK    5  A    between atoms: C8_10  and  C9_11
REMARK    6  A    between atoms: C13_16  and  C14_17
REMARK                            x       y       z     vdW  Elec       q    Type
REMARK                         _______ _______ _______ _____ _____    ______ ____
ROOT
ATOM      1  C3  UNL     1       0.761   0.090   0.501  0.00  0.00    +0.000 C 
ATOM      2  C4  UNL     1       1.615  -1.045   1.090  0.00  0.00    +0.000 C 
ATOM      3  C5  UNL     1       2.377  -1.878   0.055  0.00  0.00    +0.000 C 
ATOM      4  C6  UNL     1       0.557  -1.885   1.808  0.00  0.00    +0.000 C 
ATOM      5  C7  UNL     1      -0.652  -1.887   0.875  0.00  0.00    +0.000 C 
ATOM      6  C8  UNL     1      -0.514  -0.627  -0.009  0.00  0.00    +0.000 C 
ENDROOT
BRANCH   6   7
ATOM      7  C9  UNL     1      -1.758   0.241   0.001  0.00  0.00    +0.000 C 
ATOM      8  C10 UNL     1      -2.209   0.826   1.185  0.00  0.00    +0.000 C 
ATOM      9  N1  UNL     1      -3.293   1.625   1.287  0.00  0.00    +0.000 NA
ATOM     10  C11 UNL     1      -3.985   1.866   0.158  0.00  0.00    +0.000 C 
ATOM     11  C12 UNL     1      -3.645   1.332  -1.070  0.00  0.00    +0.000 C 
ATOM     12  C13 UNL     1      -2.520   0.505  -1.150  0.00  0.00    +0.000 C 
BRANCH  12  13
ATOM     13  C14 UNL     1      -2.207  -0.070  -2.430  0.00  0.00    +0.000 C 
ATOM     14  N2  UNL     1      -1.996  -0.555  -3.463  0.00  0.00    +0.000 NA
ENDBRANCH  12  13
ENDBRANCH   6   7
BRANCH   1  15
ATOM     15  C2  UNL     1       1.447   0.911  -0.572  0.00  0.00    +0.000 C 
ATOM     16  O2  UNL     1       0.973   1.157  -1.672  0.00  0.00    +0.000 OA
BRANCH  15  18
ATOM     17  C1  UNL     1       3.345   2.195  -1.052  0.00  0.00    +0.000 C 
ATOM     18  O1  UNL     1       2.638   1.385  -0.111  0.00  0.00    +0.000 OA
ENDBRANCH  15  18
ENDBRANCH   1  15
TORSDOF 4
