REMARK  Name = ligantes_elite\Elite_146.pdb
REMARK  5 active torsions:
REMARK  status: ('A' for Active; 'I' for Inactive)
REMARK    1  A    between atoms: C1_2  and  C2_3
REMARK    2  A    between atoms: C6_8  and  C7_9
REMARK    3  A    between atoms: C10_12  and  C11_13
REMARK    4  A    between atoms: C12_15  and  C13_16
REMARK    5  A    between atoms: C13_16  and  C14_18
REMARK                            x       y       z     vdW  Elec       q    Type
REMARK                         _______ _______ _______ _____ _____    ______ ____
ROOT
ATOM      1  C7  UNL     1       0.341  -0.448   0.402  0.00  0.00    +0.000 C 
ATOM      2  C8  UNL     1      -0.065  -1.835   0.921  0.00  0.00    +0.000 C 
ATOM      3  C9  UNL     1      -1.500  -1.635   1.383  0.00  0.00    +0.000 C 
ATOM      4  C10 UNL     1      -2.127  -0.701   0.338  0.00  0.00    +0.000 C 
ATOM      5  C12 UNL     1      -0.945   0.102  -0.253  0.00  0.00    +0.000 C 
ENDROOT
BRANCH   1  11
ATOM      6  C2  UNL     1       2.502   0.606  -0.497  0.00  0.00    +0.000 C 
ATOM      7  C3  UNL     1       3.579   0.594  -1.389  0.00  0.00    +0.000 C 
ATOM      8  C4  UNL     1       3.659  -0.432  -2.308  0.00  0.00    +0.000 C 
ATOM      9  N2  UNL     1       2.745  -1.415  -2.396  0.00  0.00    +0.000 NA
ATOM     10  C5  UNL     1       1.711  -1.384  -1.525  0.00  0.00    +0.000 C 
ATOM     11  C6  UNL     1       1.536  -0.418  -0.534  0.00  0.00    +0.000 C 
BRANCH   6  13
ATOM     12  N1  UNL     1       2.302   2.597   1.156  0.00  0.00    +0.000 NA
ATOM     13  C1  UNL     1       2.409   1.704   0.422  0.00  0.00    +0.000 C 
ENDBRANCH   6  13
ENDBRANCH   1  11
BRANCH   4  14
ATOM     14  C11 UNL     1      -2.849  -1.490  -0.755  0.00  0.00    +0.000 C 
ATOM     15  F1  UNL     1      -1.962  -2.300  -1.390  0.00  0.00    +0.000 F 
ENDBRANCH   4  14
BRANCH   5  16
ATOM     16  C13 UNL     1      -1.081   1.605  -0.070  0.00  0.00    +0.000 C 
ATOM     17  O1  UNL     1      -1.022   2.392  -1.012  0.00  0.00    +0.000 OA
BRANCH  16  18
ATOM     18  C14 UNL     1      -1.248   2.173   1.350  0.00  0.00    +0.000 C 
ATOM     19  N3  UNL     1      -1.228   3.538   1.415  0.00  0.00    +0.000 N 
ATOM     20  O2  UNL     1      -1.372   1.452   2.324  0.00  0.00    +0.000 OA
ATOM     21  H   UNL     1      -1.125   4.069   0.592  0.00  0.00    +0.000 HD
ATOM     22  H   UNL     1      -1.317   3.991   2.285  0.00  0.00    +0.000 HD
ENDBRANCH  16  18
ENDBRANCH   5  16
TORSDOF 5
