REMARK  Name = ligantes_elite\Elite_189.pdb
REMARK  6 active torsions:
REMARK  status: ('A' for Active; 'I' for Inactive)
REMARK    1  A    between atoms: C1_1  and  C2_2
REMARK    2  A    between atoms: C2_2  and  C3_3
REMARK    3  A    between atoms: C2_2  and  C4_4
REMARK    4  A    between atoms: C4_4  and  C5_6
REMARK    5  A    between atoms: C6_7  and  O2_8
REMARK    6  A    between atoms: C9_11  and  C10_12
REMARK                            x       y       z     vdW  Elec       q    Type
REMARK                         _______ _______ _______ _____ _____    ______ ____
ROOT
ATOM      1  C5  UNL     1      -0.249  -0.604   0.712  0.00  0.00    +0.000 C 
ATOM      2  C6  UNL     1      -1.021  -1.884   0.396  0.00  0.00    +0.000 C 
ATOM      3  C7  UNL     1       0.032  -2.777  -0.247  0.00  0.00    +0.000 C 
ATOM      4  C8  UNL     1       0.862  -1.835  -1.112  0.00  0.00    +0.000 C 
ATOM      5  C9  UNL     1       0.675  -0.427  -0.510  0.00  0.00    +0.000 C 
ENDROOT
BRANCH   5   6
ATOM      6  C10 UNL     1       1.951   0.351  -0.262  0.00  0.00    +0.000 C 
ATOM      7  C11 UNL     1       2.098   1.577  -0.918  0.00  0.00    +0.000 C 
ATOM      8  N1  UNL     1       3.169   2.397  -0.821  0.00  0.00    +0.000 NA
ATOM      9  C12 UNL     1       4.163   1.999  -0.009  0.00  0.00    +0.000 C 
ATOM     10  C13 UNL     1       4.135   0.814   0.698  0.00  0.00    +0.000 C 
ATOM     11  C14 UNL     1       3.019  -0.017   0.567  0.00  0.00    +0.000 C 
ATOM     12 BR1  UNL     1       3.082  -1.631   1.567  0.00  0.00    +0.000 Br
ENDBRANCH   5   6
BRANCH   1  13
ATOM     13  C4  UNL     1      -1.110   0.632   0.945  0.00  0.00    +0.000 C 
ATOM     14  O1  UNL     1      -0.807   1.430   1.838  0.00  0.00    +0.000 OA
BRANCH  13  16
ATOM     15  C1  UNL     1      -2.299   2.378  -0.397  0.00  0.00    +0.000 C 
ATOM     16  C2  UNL     1      -2.302   0.912   0.033  0.00  0.00    +0.000 C 
ATOM     17  C3  UNL     1      -3.596   0.559   0.756  0.00  0.00    +0.000 C 
ENDBRANCH  13  16
ENDBRANCH   1  13
BRANCH   2  18
ATOM     18  O2  UNL     1      -1.539  -2.473   1.574  0.00  0.00    +0.000 OA
ATOM     19  H   UNL     1      -0.813  -2.652   2.192  0.00  0.00    +0.000 HD
ENDBRANCH   2  18
TORSDOF 4
