REMARK  Name = ligantes_elite\Elite_068.pdb
REMARK  5 active torsions:
REMARK  status: ('A' for Active; 'I' for Inactive)
REMARK    1  A    between atoms: C1_1  and  C2_2
REMARK    2  A    between atoms: C5_5  and  C6_6
REMARK    3  A    between atoms: C10_11  and  C11_12
REMARK    4  A    between atoms: C12_14  and  C13_15
REMARK    5  A    between atoms: C13_15  and  C14_17
REMARK                            x       y       z     vdW  Elec       q    Type
REMARK                         _______ _______ _______ _____ _____    ______ ____
ROOT
ATOM      1  C1  UNL     1      -2.210   2.559  -0.718  0.00  0.00    +0.000 C 
ATOM      2  C2  UNL     1      -0.725   2.240  -0.644  0.00  0.00    +0.000 C 
ATOM      3  C3  UNL     1      -0.103   1.945  -2.007  0.00  0.00    +0.000 C 
ATOM      4  C4  UNL     1       1.110   1.052  -1.726  0.00  0.00    +0.000 C 
ATOM      5  C5  UNL     1       1.141   0.788  -0.204  0.00  0.00    +0.000 C 
ATOM      6  C12 UNL     1      -0.338   1.024   0.211  0.00  0.00    +0.000 C 
ENDROOT
BRANCH   5   7
ATOM      7  C6  UNL     1       1.820  -0.474   0.311  0.00  0.00    +0.000 C 
ATOM      8  C7  UNL     1       1.428  -1.010   1.543  0.00  0.00    +0.000 C 
ATOM      9  N1  UNL     1       1.949  -2.114   2.126  0.00  0.00    +0.000 NA
ATOM     10  C8  UNL     1       2.942  -2.737   1.473  0.00  0.00    +0.000 C 
ATOM     11  C9  UNL     1       3.454  -2.283   0.277  0.00  0.00    +0.000 C 
ATOM     12  C10 UNL     1       2.904  -1.130  -0.302  0.00  0.00    +0.000 C 
BRANCH  12  13
ATOM     13  C11 UNL     1       3.545  -0.660  -1.498  0.00  0.00    +0.000 C 
ATOM     14  N2  UNL     1       4.104  -0.300  -2.449  0.00  0.00    +0.000 NA
ENDBRANCH  12  13
ENDBRANCH   5   7
BRANCH   6  15
ATOM     15  C13 UNL     1      -1.235  -0.184  -0.062  0.00  0.00    +0.000 C 
ATOM     16  O1  UNL     1      -1.125  -0.908  -1.044  0.00  0.00    +0.000 OA
BRANCH  15  17
ATOM     17  C14 UNL     1      -2.279  -0.456   0.973  0.00  0.00    +0.000 C 
ATOM     18  C15 UNL     1      -3.432  -1.386   0.676  0.00  0.00    +0.000 C 
ATOM     19  C16 UNL     1      -2.345  -1.822   1.615  0.00  0.00    +0.000 C 
ENDBRANCH  15  17
ENDBRANCH   6  15
TORSDOF 4
