REMARK  Name = ligantes_elite\Elite_155.pdb
REMARK  4 active torsions:
REMARK  status: ('A' for Active; 'I' for Inactive)
REMARK    1  A    between atoms: C1_1  and  C2_2
REMARK    2  A    between atoms: C5_5  and  C6_6
REMARK    3  A    between atoms: C11_13  and  C12_14
REMARK    4  A    between atoms: C12_14  and  C13_16
REMARK                            x       y       z     vdW  Elec       q    Type
REMARK                         _______ _______ _______ _____ _____    ______ ____
ROOT
ATOM      1  C1  UNL     1       2.094  -2.454   0.185  0.00  0.00    +0.000 C 
ATOM      2  C2  UNL     1       0.737  -1.771   0.302  0.00  0.00    +0.000 C 
ATOM      3  C3  UNL     1      -0.413  -2.775   0.452  0.00  0.00    +0.000 C 
ATOM      4  C4  UNL     1      -1.604  -2.200  -0.325  0.00  0.00    +0.000 C 
ATOM      5  C5  UNL     1      -1.177  -0.814  -0.856  0.00  0.00    +0.000 C 
ATOM      6  C11 UNL     1       0.356  -0.966  -0.946  0.00  0.00    +0.000 C 
ENDROOT
BRANCH   5   7
ATOM      7  C6  UNL     1      -1.684   0.359  -0.031  0.00  0.00    +0.000 C 
ATOM      8  C7  UNL     1      -1.814   0.278   1.356  0.00  0.00    +0.000 C 
ATOM      9  N1  UNL     1      -2.218   1.287   2.162  0.00  0.00    +0.000 NA
ATOM     10  C8  UNL     1      -2.532   2.454   1.572  0.00  0.00    +0.000 C 
ATOM     11  C9  UNL     1      -2.456   2.657   0.210  0.00  0.00    +0.000 C 
ATOM     12  C10 UNL     1      -2.028   1.599  -0.593  0.00  0.00    +0.000 C 
ATOM     13 BR1  UNL     1      -1.947   1.950  -2.461  0.00  0.00    +0.000 Br
ENDBRANCH   5   7
BRANCH   6  14
ATOM     14  C12 UNL     1       1.131   0.314  -1.211  0.00  0.00    +0.000 C 
ATOM     15  O1  UNL     1       1.438   0.636  -2.357  0.00  0.00    +0.000 OA
BRANCH  14  16
ATOM     16  C13 UNL     1       1.511   1.192  -0.062  0.00  0.00    +0.000 C 
ATOM     17  C14 UNL     1       1.770   2.664  -0.288  0.00  0.00    +0.000 C 
ATOM     18  C15 UNL     1       2.915   1.743   0.022  0.00  0.00    +0.000 C 
ENDBRANCH  14  16
ENDBRANCH   6  14
TORSDOF 3
