REMARK  Name = ligantes_elite\Elite_059.pdb
REMARK  5 active torsions:
REMARK  status: ('A' for Active; 'I' for Inactive)
REMARK    1  A    between atoms: C1_1  and  C2_2
REMARK    2  A    between atoms: C2_2  and  C3_3
REMARK    3  A    between atoms: C3_3  and  C4_5
REMARK    4  A    between atoms: C5_6  and  C6_7
REMARK    5  A    between atoms: C9_10  and  C10_11
REMARK                            x       y       z     vdW  Elec       q    Type
REMARK                         _______ _______ _______ _____ _____    ______ ____
ROOT
ATOM      1  C4  UNL     1      -0.492  -0.221  -0.998  0.00  0.00    +0.000 C 
ATOM      2  C5  UNL     1      -1.230  -1.447  -1.582  0.00  0.00    +0.000 C 
ATOM      3  C6  UNL     1      -2.605  -1.743  -0.971  0.00  0.00    +0.000 C 
ATOM      4  C7  UNL     1      -0.247  -2.573  -1.255  0.00  0.00    +0.000 C 
ATOM      5  C8  UNL     1       0.219  -2.275   0.166  0.00  0.00    +0.000 C 
ATOM      6  C9  UNL     1       0.085  -0.745   0.346  0.00  0.00    +0.000 C 
ENDROOT
BRANCH   6   7
ATOM      7  C10 UNL     1       1.401  -0.142   0.801  0.00  0.00    +0.000 C 
ATOM      8  C11 UNL     1       2.453   0.016  -0.105  0.00  0.00    +0.000 C 
ATOM      9  N1  UNL     1       3.662   0.545   0.187  0.00  0.00    +0.000 NA
ATOM     10  C12 UNL     1       3.871   0.924   1.459  0.00  0.00    +0.000 C 
ATOM     11  C13 UNL     1       2.927   0.786   2.456  0.00  0.00    +0.000 C 
ATOM     12  C14 UNL     1       1.684   0.239   2.124  0.00  0.00    +0.000 C 
ATOM     13  I1  UNL     1       0.340   0.005   3.726  0.00  0.00    +0.000 I 
ENDBRANCH   6   7
BRANCH   1  14
ATOM     14  C3  UNL     1      -1.345   1.049  -0.912  0.00  0.00    +0.000 C 
ATOM     15  O1  UNL     1      -2.337   1.197  -1.628  0.00  0.00    +0.000 OA
BRANCH  14  17
ATOM     16  C1  UNL     1      -1.661   3.447  -0.172  0.00  0.00    +0.000 C 
ATOM     17  C2  UNL     1      -0.861   2.167  -0.002  0.00  0.00    +0.000 C 
ENDBRANCH  14  17
ENDBRANCH   1  14
TORSDOF 3
