REMARK  Name = ligantes_elite\Elite_148.pdb
REMARK  6 active torsions:
REMARK  status: ('A' for Active; 'I' for Inactive)
REMARK    1  A    between atoms: C1_1  and  C2_2
REMARK    2  A    between atoms: C2_2  and  C3_3
REMARK    3  A    between atoms: C3_3  and  C4_5
REMARK    4  A    between atoms: C5_6  and  O2_7
REMARK    5  A    between atoms: C8_10  and  C9_11
REMARK    6  A    between atoms: C13_16  and  N2_17
REMARK                            x       y       z     vdW  Elec       q    Type
REMARK                         _______ _______ _______ _____ _____    ______ ____
ROOT
ATOM      1  C4  UNL     1      -0.600  -1.005   0.329  0.00  0.00    +0.000 C 
ATOM      2  C5  UNL     1      -0.805  -2.092  -0.724  0.00  0.00    +0.000 C 
ATOM      3  C6  UNL     1       0.619  -2.405  -1.150  0.00  0.00    +0.000 C 
ATOM      4  C7  UNL     1       1.303  -1.045  -1.205  0.00  0.00    +0.000 C 
ATOM      5  C8  UNL     1       0.465  -0.089  -0.318  0.00  0.00    +0.000 C 
ENDROOT
BRANCH   5   6
ATOM      6  C9  UNL     1       1.353   0.767   0.567  0.00  0.00    +0.000 C 
ATOM      7  C10 UNL     1       1.402   0.607   1.955  0.00  0.00    +0.000 C 
ATOM      8  N1  UNL     1       2.236   1.277   2.785  0.00  0.00    +0.000 NA
ATOM      9  C11 UNL     1       3.076   2.156   2.216  0.00  0.00    +0.000 C 
ATOM     10  C12 UNL     1       3.102   2.416   0.860  0.00  0.00    +0.000 C 
ATOM     11  C13 UNL     1       2.194   1.760   0.023  0.00  0.00    +0.000 C 
BRANCH  11  12
ATOM     12  N2  UNL     1       2.304   1.968  -1.365  0.00  0.00    +0.000 N 
ATOM     13  H   UNL     1       1.680   1.520  -1.981  0.00  0.00    +0.000 HD
ATOM     14  H   UNL     1       3.005   2.561  -1.720  0.00  0.00    +0.000 HD
ENDBRANCH  11  12
ENDBRANCH   5   6
BRANCH   1  15
ATOM     15  C3  UNL     1      -1.854  -0.224   0.705  0.00  0.00    +0.000 C 
ATOM     16  O1  UNL     1      -1.895   0.376   1.782  0.00  0.00    +0.000 OA
BRANCH  15  18
ATOM     17  C1  UNL     1      -4.113   0.782   0.181  0.00  0.00    +0.000 C 
ATOM     18  C2  UNL     1      -3.001  -0.141  -0.288  0.00  0.00    +0.000 C 
ENDBRANCH  15  18
ENDBRANCH   1  15
BRANCH   2  19
ATOM     19  O2  UNL     1      -1.438  -3.229  -0.171  0.00  0.00    +0.000 OA
ATOM     20  H   UNL     1      -0.915  -3.559   0.576  0.00  0.00    +0.000 HD
ENDBRANCH   2  19
TORSDOF 5
