REMARK  Name = ligantes_elite\Elite_175.pdb
REMARK  5 active torsions:
REMARK  status: ('A' for Active; 'I' for Inactive)
REMARK    1  A    between atoms: C1_2  and  C2_4
REMARK    2  A    between atoms: C2_4  and  C3_6
REMARK    3  A    between atoms: C4_7  and  O3_8
REMARK    4  A    between atoms: C7_11  and  C8_12
REMARK    5  A    between atoms: C12_17  and  C13_18
REMARK                            x       y       z     vdW  Elec       q    Type
REMARK                         _______ _______ _______ _____ _____    ______ ____
ROOT
ATOM      1  C3  UNL     1       1.261  -0.598  -0.036  0.00  0.00    +0.000 C 
ATOM      2  C4  UNL     1       2.195  -0.910   1.148  0.00  0.00    +0.000 C 
ATOM      3  C5  UNL     1       1.378  -0.668   2.417  0.00  0.00    +0.000 C 
ATOM      4  C6  UNL     1      -0.048  -0.962   1.984  0.00  0.00    +0.000 C 
ATOM      5  C7  UNL     1      -0.125  -0.316   0.592  0.00  0.00    +0.000 C 
ENDROOT
BRANCH   5   6
ATOM      6  C8  UNL     1      -1.298  -0.788  -0.244  0.00  0.00    +0.000 C 
ATOM      7  C9  UNL     1      -1.492  -2.152  -0.484  0.00  0.00    +0.000 C 
ATOM      8  N2  UNL     1      -2.505  -2.675  -1.209  0.00  0.00    +0.000 NA
ATOM      9  C10 UNL     1      -3.377  -1.806  -1.748  0.00  0.00    +0.000 C 
ATOM     10  C11 UNL     1      -3.284  -0.436  -1.587  0.00  0.00    +0.000 C 
ATOM     11  C12 UNL     1      -2.230   0.097  -0.828  0.00  0.00    +0.000 C 
BRANCH  11  12
ATOM     12  C13 UNL     1      -2.151   1.595  -0.662  0.00  0.00    +0.000 C 
ATOM     13  F1  UNL     1      -3.049   2.277  -1.427  0.00  0.00    +0.000 F 
ATOM     14  F2  UNL     1      -0.931   2.096  -1.003  0.00  0.00    +0.000 F 
ENDBRANCH  11  12
ENDBRANCH   5   6
BRANCH   1  15
ATOM     15  C2  UNL     1       1.705   0.508  -0.972  0.00  0.00    +0.000 C 
ATOM     16  O2  UNL     1       1.760   0.369  -2.193  0.00  0.00    +0.000 OA
BRANCH  15  18
ATOM     17  N1  UNL     1       2.367   2.833  -1.309  0.00  0.00    +0.000 N 
ATOM     18  C1  UNL     1       2.038   1.886  -0.380  0.00  0.00    +0.000 C 
ATOM     19  O1  UNL     1       2.006   2.097   0.822  0.00  0.00    +0.000 OA
ATOM     20  H   UNL     1       2.596   3.746  -1.021  0.00  0.00    +0.000 HD
ATOM     21  H   UNL     1       2.375   2.602  -2.266  0.00  0.00    +0.000 HD
ENDBRANCH  15  18
ENDBRANCH   1  15
BRANCH   2  22
ATOM     22  O3  UNL     1       3.413  -0.193   1.158  0.00  0.00    +0.000 OA
ATOM     23  H   UNL     1       3.229   0.757   1.229  0.00  0.00    +0.000 HD
ENDBRANCH   2  22
TORSDOF 5
