REMARK  Name = ligantes_elite\Elite_066.pdb
REMARK  3 active torsions:
REMARK  status: ('A' for Active; 'I' for Inactive)
REMARK    1  A    between atoms: C1_2  and  C2_3
REMARK    2  A    between atoms: C1_2  and  C5_6
REMARK    3  A    between atoms: C9_11  and  C10_12
REMARK                            x       y       z     vdW  Elec       q    Type
REMARK                         _______ _______ _______ _____ _____    ______ ____
ROOT
ATOM      1  C5  UNL     1       0.791  -0.931   0.032  0.00  0.00    +0.000 C 
ATOM      2  C6  UNL     1       0.919  -2.450  -0.014  0.00  0.00    +0.000 C 
ATOM      3  F1  UNL     1       0.611  -2.851  -1.283  0.00  0.00    +0.000 F 
ATOM      4  C7  UNL     1      -0.155  -2.981   0.919  0.00  0.00    +0.000 C 
ATOM      5  C8  UNL     1      -1.315  -2.031   0.671  0.00  0.00    +0.000 C 
ATOM      6  C9  UNL     1      -0.646  -0.650   0.538  0.00  0.00    +0.000 C 
ENDROOT
BRANCH   6   7
ATOM      7  C10 UNL     1      -1.438   0.292  -0.346  0.00  0.00    +0.000 C 
ATOM      8  C11 UNL     1      -1.606   0.003  -1.702  0.00  0.00    +0.000 C 
ATOM      9  N1  UNL     1      -2.282   0.775  -2.582  0.00  0.00    +0.000 NA
ATOM     10  C12 UNL     1      -2.842   1.899  -2.102  0.00  0.00    +0.000 C 
ATOM     11  C13 UNL     1      -2.753   2.289  -0.781  0.00  0.00    +0.000 C 
ATOM     12  C14 UNL     1      -2.043   1.474   0.102  0.00  0.00    +0.000 C 
ATOM     13 BR1  UNL     1      -1.948   2.069   1.905  0.00  0.00    +0.000 Br
ENDBRANCH   6   7
BRANCH   1  15
ATOM     14  O1  UNL     1       1.983  -0.818   2.129  0.00  0.00    +0.000 OA
ATOM     15  C1  UNL     1       1.814  -0.376   0.998  0.00  0.00    +0.000 C 
BRANCH  15  16
ATOM     16  C2  UNL     1       2.671   0.732   0.501  0.00  0.00    +0.000 C 
ATOM     17  C3  UNL     1       2.740   2.021   1.287  0.00  0.00    +0.000 C 
ATOM     18  C4  UNL     1       2.083   2.004  -0.061  0.00  0.00    +0.000 C 
ENDBRANCH  15  16
ENDBRANCH   1  15
TORSDOF 3
