REMARK  Name = ligantes_elite\Elite_047.pdb
REMARK  6 active torsions:
REMARK  status: ('A' for Active; 'I' for Inactive)
REMARK    1  A    between atoms: C1_1  and  O1_2
REMARK    2  A    between atoms: O1_2  and  C2_3
REMARK    3  A    between atoms: C2_3  and  C3_5
REMARK    4  A    between atoms: C4_6  and  C5_7
REMARK    5  A    between atoms: C8_10  and  C9_11
REMARK    6  A    between atoms: C13_16  and  N2_17
REMARK                            x       y       z     vdW  Elec       q    Type
REMARK                         _______ _______ _______ _____ _____    ______ ____
ROOT
ATOM      1  C3  UNL     1      -0.489  -0.788  -0.587  0.00  0.00    +0.000 C 
ATOM      2  C4  UNL     1      -1.132  -2.152  -0.292  0.00  0.00    +0.000 C 
ATOM      3  C5  UNL     1      -2.552  -2.339  -0.806  0.00  0.00    +0.000 C 
ATOM      4  C6  UNL     1      -1.000  -2.332   1.225  0.00  0.00    +0.000 C 
ATOM      5  C7  UNL     1       0.142  -1.409   1.671  0.00  0.00    +0.000 C 
ATOM      6  C8  UNL     1       0.708  -0.785   0.380  0.00  0.00    +0.000 C 
ENDROOT
BRANCH   6   7
ATOM      7  C9  UNL     1       1.457   0.527   0.467  0.00  0.00    +0.000 C 
ATOM      8  C10 UNL     1       1.183   1.466   1.465  0.00  0.00    +0.000 C 
ATOM      9  N1  UNL     1       1.828   2.645   1.621  0.00  0.00    +0.000 NA
ATOM     10  C11 UNL     1       2.816   2.909   0.750  0.00  0.00    +0.000 C 
ATOM     11  C12 UNL     1       3.161   2.065  -0.289  0.00  0.00    +0.000 C 
ATOM     12  C13 UNL     1       2.438   0.884  -0.478  0.00  0.00    +0.000 C 
BRANCH  12  13
ATOM     13  N2  UNL     1       2.867  -0.001  -1.483  0.00  0.00    +0.000 N 
ATOM     14  H   UNL     1       2.379  -0.841  -1.640  0.00  0.00    +0.000 HD
ATOM     15  H   UNL     1       3.656   0.220  -2.029  0.00  0.00    +0.000 HD
ENDBRANCH  12  13
ENDBRANCH   6   7
BRANCH   1  16
ATOM     16  C2  UNL     1      -1.424   0.388  -0.349  0.00  0.00    +0.000 C 
ATOM     17  O2  UNL     1      -2.043   0.594   0.686  0.00  0.00    +0.000 OA
BRANCH  16  19
ATOM     18  C1  UNL     1      -2.273   2.349  -1.300  0.00  0.00    +0.000 C 
ATOM     19  O1  UNL     1      -1.462   1.183  -1.454  0.00  0.00    +0.000 OA
ENDBRANCH  16  19
ENDBRANCH   1  16
TORSDOF 4
