REMARK  Name = ligantes_elite\Elite_124.pdb
REMARK  5 active torsions:
REMARK  status: ('A' for Active; 'I' for Inactive)
REMARK    1  A    between atoms: C1_1  and  C2_2
REMARK    2  A    between atoms: C5_5  and  C6_6
REMARK    3  A    between atoms: C10_11  and  C11_12
REMARK    4  A    between atoms: C12_15  and  C13_16
REMARK    5  A    between atoms: C13_16  and  C14_18
REMARK                            x       y       z     vdW  Elec       q    Type
REMARK                         _______ _______ _______ _____ _____    ______ ____
ROOT
ATOM      1  C1  UNL     1       1.660   2.222   2.139  0.00  0.00    +0.000 C 
ATOM      2  C2  UNL     1       1.162   1.810   0.760  0.00  0.00    +0.000 C 
ATOM      3  C3  UNL     1       0.076   2.740   0.230  0.00  0.00    +0.000 C 
ATOM      4  C4  UNL     1      -0.560   1.936  -0.895  0.00  0.00    +0.000 C 
ATOM      5  C5  UNL     1      -0.500   0.458  -0.449  0.00  0.00    +0.000 C 
ATOM      6  C12 UNL     1       0.480   0.431   0.752  0.00  0.00    +0.000 C 
ENDROOT
BRANCH   5   7
ATOM      7  C6  UNL     1      -1.865  -0.122  -0.110  0.00  0.00    +0.000 C 
ATOM      8  C7  UNL     1      -2.688   0.508   0.830  0.00  0.00    +0.000 C 
ATOM      9  N1  UNL     1      -3.914   0.079   1.201  0.00  0.00    +0.000 NA
ATOM     10  C8  UNL     1      -4.360  -1.051   0.625  0.00  0.00    +0.000 C 
ATOM     11  C9  UNL     1      -3.637  -1.763  -0.314  0.00  0.00    +0.000 C 
ATOM     12  C10 UNL     1      -2.367  -1.303  -0.698  0.00  0.00    +0.000 C 
BRANCH  12  13
ATOM     13  C11 UNL     1      -1.610  -2.085  -1.745  0.00  0.00    +0.000 C 
ATOM     14  F1  UNL     1      -2.195  -3.273  -2.069  0.00  0.00    +0.000 F 
ATOM     15  F2  UNL     1      -0.341  -2.396  -1.363  0.00  0.00    +0.000 F 
ENDBRANCH  12  13
ENDBRANCH   5   7
BRANCH   6  16
ATOM     16  C13 UNL     1       1.485  -0.709   0.690  0.00  0.00    +0.000 C 
ATOM     17  O1  UNL     1       1.589  -1.520   1.607  0.00  0.00    +0.000 OA
BRANCH  16  18
ATOM     18  C14 UNL     1       2.385  -0.799  -0.503  0.00  0.00    +0.000 C 
ATOM     19  C15 UNL     1       3.817  -1.248  -0.331  0.00  0.00    +0.000 C 
ATOM     20  C16 UNL     1       2.828  -2.149  -1.013  0.00  0.00    +0.000 C 
ENDBRANCH  16  18
ENDBRANCH   6  16
TORSDOF 4
