MODEL 1
REMARK VINA RESULT:    -5.517      0.000      0.000
REMARK INTER + INTRA:          -8.958
REMARK INTER:                  -7.129
REMARK INTRA:                  -1.829
REMARK UNBOUND:                -1.829
REMARK  Name = ligantes_geracao2\Derivado_011.pdb
REMARK  8 active torsions:
REMARK  status: ('A' for Active; 'I' for Inactive)
REMARK    1  A    between atoms: C1_1  and  C2_2
REMARK    2  A    between atoms: C2_2  and  C3_3
REMARK    3  A    between atoms: C2_2  and  C4_4
REMARK    4  A    between atoms: C4_4  and  C5_5
REMARK    5  A    between atoms: C5_5  and  C6_7
REMARK    6  A    between atoms: C7_8  and  C8_9
REMARK    7  A    between atoms: C11_12  and  C12_13
REMARK    8  A    between atoms: C16_18  and  C17_19
REMARK                            x       y       z     vdW  Elec       q    Type
REMARK                         _______ _______ _______ _____ _____    ______ ____
ROOT
ATOM      1  C6  UNL     1       1.806  -2.430  18.678  0.00  0.00    +0.000 C 
ATOM      2  C7  UNL     1       2.432  -3.538  17.824  0.00  0.00    +0.000 C 
ATOM      3  C8  UNL     1       3.307  -4.499  18.615  0.00  0.00    +0.000 C 
ATOM      4  C9  UNL     1       3.225  -2.755  16.781  0.00  0.00    +0.000 C 
ATOM      5  C10 UNL     1       2.350  -1.551  16.443  0.00  0.00    +0.000 C 
ATOM      6  C11 UNL     1       1.395  -1.365  17.638  0.00  0.00    +0.000 C 
ENDROOT
BRANCH   6   7
ATOM      7  C12 UNL     1       1.301   0.041  18.194  0.00  0.00    +0.000 C 
ATOM      8  C13 UNL     1       2.457   0.824  18.197  0.00  0.00    +0.000 C 
ATOM      9  N1  UNL     1       2.528   2.095  18.652  0.00  0.00    +0.000 NA
ATOM     10  C14 UNL     1       1.398   2.638  19.138  0.00  0.00    +0.000 C 
ATOM     11  C15 UNL     1       0.193   1.967  19.180  0.00  0.00    +0.000 C 
ATOM     12  C16 UNL     1       0.140   0.654  18.699  0.00  0.00    +0.000 C 
BRANCH  12  13
ATOM     13  C17 UNL     1      -1.133  -0.006  18.733  0.00  0.00    +0.000 C 
ATOM     14  N2  UNL     1      -2.152  -0.561  18.754  0.00  0.00    +0.000 NA
ENDBRANCH  12  13
ENDBRANCH   6   7
BRANCH   1  15
ATOM     15  C5  UNL     1       0.607  -2.943  19.466  0.00  0.00    +0.000 C 
ATOM     16  O1  UNL     1      -0.271  -3.619  18.930  0.00  0.00    +0.000 OA
BRANCH  15  17
ATOM     17  C4  UNL     1       0.547  -2.544  20.934  0.00  0.00    +0.000 C 
BRANCH  17  19
ATOM     18  C1  UNL     1       2.571  -2.520  22.421  0.00  0.00    +0.000 C 
ATOM     19  C2  UNL     1       1.758  -1.722  21.399  0.00  0.00    +0.000 C 
ATOM     20  C3  UNL     1       1.324  -0.389  22.011  0.00  0.00    +0.000 C 
ENDBRANCH  17  19
ENDBRANCH  15  17
ENDBRANCH   1  15
TORSDOF 5
ENDMDL
MODEL 2
REMARK VINA RESULT:    -5.313      2.723      5.542
REMARK INTER + INTRA:          -8.695
REMARK INTER:                  -6.939
REMARK INTRA:                  -1.755
REMARK UNBOUND:                -1.829
REMARK  Name = ligantes_geracao2\Derivado_011.pdb
REMARK  8 active torsions:
REMARK  status: ('A' for Active; 'I' for Inactive)
REMARK    1  A    between atoms: C1_1  and  C2_2
REMARK    2  A    between atoms: C2_2  and  C3_3
REMARK    3  A    between atoms: C2_2  and  C4_4
REMARK    4  A    between atoms: C4_4  and  C5_5
REMARK    5  A    between atoms: C5_5  and  C6_7
REMARK    6  A    between atoms: C7_8  and  C8_9
REMARK    7  A    between atoms: C11_12  and  C12_13
REMARK    8  A    between atoms: C16_18  and  C17_19
REMARK                            x       y       z     vdW  Elec       q    Type
REMARK                         _______ _______ _______ _____ _____    ______ ____
ROOT
ATOM      1  C6  UNL     1       0.802   2.517  19.905  0.00  0.00    +0.000 C 
ATOM      2  C7  UNL     1      -0.149   3.693  19.656  0.00  0.00    +0.000 C 
ATOM      3  C8  UNL     1       0.085   4.875  20.587  0.00  0.00    +0.000 C 
ATOM      4  C9  UNL     1      -1.526   3.064  19.852  0.00  0.00    +0.000 C 
ATOM      5  C10 UNL     1      -1.413   1.671  19.238  0.00  0.00    +0.000 C 
ATOM      6  C11 UNL     1       0.091   1.330  19.219  0.00  0.00    +0.000 C 
ENDROOT
BRANCH   6   7
ATOM      7  C12 UNL     1       0.466  -0.027  19.780  0.00  0.00    +0.000 C 
ATOM      8  C13 UNL     1      -0.065  -0.394  21.018  0.00  0.00    +0.000 C 
ATOM      9  N1  UNL     1       0.172  -1.570  21.641  0.00  0.00    +0.000 NA
ATOM     10  C14 UNL     1       0.981  -2.445  21.017  0.00  0.00    +0.000 C 
ATOM     11  C15 UNL     1       1.558  -2.198  19.788  0.00  0.00    +0.000 C 
ATOM     12  C16 UNL     1       1.295  -0.976  19.158  0.00  0.00    +0.000 C 
BRANCH  12  13
ATOM     13  C17 UNL     1       1.889  -0.762  17.869  0.00  0.00    +0.000 C 
ATOM     14  N2  UNL     1       2.379  -0.569  16.836  0.00  0.00    +0.000 NA
ENDBRANCH  12  13
ENDBRANCH   6   7
BRANCH   1  15
ATOM     15  C5  UNL     1       2.178   2.774  19.303  0.00  0.00    +0.000 C 
ATOM     16  O1  UNL     1       2.309   3.375  18.237  0.00  0.00    +0.000 OA
BRANCH  15  17
ATOM     17  C4  UNL     1       3.365   2.222  20.080  0.00  0.00    +0.000 C 
BRANCH  17  19
ATOM     18  C1  UNL     1       3.931   3.114  22.358  0.00  0.00    +0.000 C 
ATOM     19  C2  UNL     1       3.104   2.083  21.587  0.00  0.00    +0.000 C 
ATOM     20  C3  UNL     1       3.441   0.675  22.082  0.00  0.00    +0.000 C 
ENDBRANCH  17  19
ENDBRANCH  15  17
ENDBRANCH   1  15
TORSDOF 5
ENDMDL
MODEL 3
REMARK VINA RESULT:    -5.312     21.499     24.497
REMARK INTER + INTRA:          -8.693
REMARK INTER:                  -6.888
REMARK INTRA:                  -1.805
REMARK UNBOUND:                -1.829
REMARK  Name = ligantes_geracao2\Derivado_011.pdb
REMARK  8 active torsions:
REMARK  status: ('A' for Active; 'I' for Inactive)
REMARK    1  A    between atoms: C1_1  and  C2_2
REMARK    2  A    between atoms: C2_2  and  C3_3
REMARK    3  A    between atoms: C2_2  and  C4_4
REMARK    4  A    between atoms: C4_4  and  C5_5
REMARK    5  A    between atoms: C5_5  and  C6_7
REMARK    6  A    between atoms: C7_8  and  C8_9
REMARK    7  A    between atoms: C11_12  and  C12_13
REMARK    8  A    between atoms: C16_18  and  C17_19
REMARK                            x       y       z     vdW  Elec       q    Type
REMARK                         _______ _______ _______ _____ _____    ______ ____
ROOT
ATOM      1  C6  UNL     1      16.391  -5.488   2.176  0.00  0.00    +0.000 C 
ATOM      2  C7  UNL     1      15.398  -4.475   2.757  0.00  0.00    +0.000 C 
ATOM      3  C8  UNL     1      16.055  -3.205   3.277  0.00  0.00    +0.000 C 
ATOM      4  C9  UNL     1      14.712  -5.270   3.865  0.00  0.00    +0.000 C 
ATOM      5  C10 UNL     1      14.548  -6.677   3.297  0.00  0.00    +0.000 C 
ATOM      6  C11 UNL     1      15.593  -6.810   2.171  0.00  0.00    +0.000 C 
ENDROOT
BRANCH   6   7
ATOM      7  C12 UNL     1      16.454  -8.056   2.215  0.00  0.00    +0.000 C 
ATOM      8  C13 UNL     1      16.918  -8.489   3.458  0.00  0.00    +0.000 C 
ATOM      9  N1  UNL     1      17.687  -9.583   3.657  0.00  0.00    +0.000 NA
ATOM     10  C14 UNL     1      18.028 -10.301   2.572  0.00  0.00    +0.000 C 
ATOM     11  C15 UNL     1      17.624  -9.976   1.293  0.00  0.00    +0.000 C 
ATOM     12  C16 UNL     1      16.823  -8.843   1.110  0.00  0.00    +0.000 C 
BRANCH  12  13
ATOM     13  C17 UNL     1      16.398  -8.550  -0.229  0.00  0.00    +0.000 C 
ATOM     14  N2  UNL     1      16.046  -8.335  -1.313  0.00  0.00    +0.000 NA
ENDBRANCH  12  13
ENDBRANCH   6   7
BRANCH   1  15
ATOM     15  C5  UNL     1      16.837  -5.092   0.774  0.00  0.00    +0.000 C 
ATOM     16  O1  UNL     1      16.027  -4.966  -0.144  0.00  0.00    +0.000 OA
BRANCH  15  17
ATOM     17  C4  UNL     1      18.333  -4.897   0.574  0.00  0.00    +0.000 C 
BRANCH  17  19
ATOM     18  C1  UNL     1      20.233  -4.515   2.172  0.00  0.00    +0.000 C 
ATOM     19  C2  UNL     1      19.189  -5.523   1.685  0.00  0.00    +0.000 C 
ATOM     20  C3  UNL     1      19.887  -6.795   1.198  0.00  0.00    +0.000 C 
ENDBRANCH  17  19
ENDBRANCH  15  17
ENDBRANCH   1  15
TORSDOF 5
ENDMDL
MODEL 4
REMARK VINA RESULT:    -5.302      2.142      4.900
REMARK INTER + INTRA:          -8.681
REMARK INTER:                  -6.840
REMARK INTRA:                  -1.842
REMARK UNBOUND:                -1.829
REMARK  Name = ligantes_geracao2\Derivado_011.pdb
REMARK  8 active torsions:
REMARK  status: ('A' for Active; 'I' for Inactive)
REMARK    1  A    between atoms: C1_1  and  C2_2
REMARK    2  A    between atoms: C2_2  and  C3_3
REMARK    3  A    between atoms: C2_2  and  C4_4
REMARK    4  A    between atoms: C4_4  and  C5_5
REMARK    5  A    between atoms: C5_5  and  C6_7
REMARK    6  A    between atoms: C7_8  and  C8_9
REMARK    7  A    between atoms: C11_12  and  C12_13
REMARK    8  A    between atoms: C16_18  and  C17_19
REMARK                            x       y       z     vdW  Elec       q    Type
REMARK                         _______ _______ _______ _____ _____    ______ ____
ROOT
ATOM      1  C6  UNL     1       1.473  -0.632  20.617  0.00  0.00    +0.000 C 
ATOM      2  C7  UNL     1       1.885  -0.211  22.032  0.00  0.00    +0.000 C 
ATOM      3  C8  UNL     1       2.735   1.051  22.069  0.00  0.00    +0.000 C 
ATOM      4  C9  UNL     1       2.640  -1.435  22.543  0.00  0.00    +0.000 C 
ATOM      5  C10 UNL     1       1.864  -2.632  22.000  0.00  0.00    +0.000 C 
ATOM      6  C11 UNL     1       1.065  -2.112  20.788  0.00  0.00    +0.000 C 
ENDROOT
BRANCH   6   7
ATOM      7  C12 UNL     1       1.177  -2.937  19.522  0.00  0.00    +0.000 C 
ATOM      8  C13 UNL     1       2.434  -3.438  19.175  0.00  0.00    +0.000 C 
ATOM      9  N1  UNL     1       2.689  -4.193  18.083  0.00  0.00    +0.000 NA
ATOM     10  C14 UNL     1       1.652  -4.477  17.276  0.00  0.00    +0.000 C 
ATOM     11  C15 UNL     1       0.364  -4.046  17.519  0.00  0.00    +0.000 C 
ATOM     12  C16 UNL     1       0.120  -3.270  18.657  0.00  0.00    +0.000 C 
BRANCH  12  13
ATOM     13  C17 UNL     1      -1.234  -2.860  18.895  0.00  0.00    +0.000 C 
ATOM     14  N2  UNL     1      -2.330  -2.543  19.106  0.00  0.00    +0.000 NA
ENDBRANCH  12  13
ENDBRANCH   6   7
BRANCH   1  15
ATOM     15  C5  UNL     1       0.317   0.215  20.097  0.00  0.00    +0.000 C 
ATOM     16  O1  UNL     1      -0.637   0.509  20.818  0.00  0.00    +0.000 OA
BRANCH  15  17
ATOM     17  C4  UNL     1       0.400   0.642  18.639  0.00  0.00    +0.000 C 
BRANCH  17  19
ATOM     18  C1  UNL     1       2.342   1.866  17.620  0.00  0.00    +0.000 C 
ATOM     19  C2  UNL     1       1.803   0.494  18.033  0.00  0.00    +0.000 C 
ATOM     20  C3  UNL     1       1.789  -0.441  16.822  0.00  0.00    +0.000 C 
ENDBRANCH  17  19
ENDBRANCH  15  17
ENDBRANCH   1  15
TORSDOF 5
ENDMDL
MODEL 5
REMARK VINA RESULT:    -5.211      2.615      4.052
REMARK INTER + INTRA:          -8.564
REMARK INTER:                  -7.282
REMARK INTRA:                  -1.282
REMARK UNBOUND:                -1.829
REMARK  Name = ligantes_geracao2\Derivado_011.pdb
REMARK  8 active torsions:
REMARK  status: ('A' for Active; 'I' for Inactive)
REMARK    1  A    between atoms: C1_1  and  C2_2
REMARK    2  A    between atoms: C2_2  and  C3_3
REMARK    3  A    between atoms: C2_2  and  C4_4
REMARK    4  A    between atoms: C4_4  and  C5_5
REMARK    5  A    between atoms: C5_5  and  C6_7
REMARK    6  A    between atoms: C7_8  and  C8_9
REMARK    7  A    between atoms: C11_12  and  C12_13
REMARK    8  A    between atoms: C16_18  and  C17_19
REMARK                            x       y       z     vdW  Elec       q    Type
REMARK                         _______ _______ _______ _____ _____    ______ ____
ROOT
ATOM      1  C6  UNL     1       1.329   0.611  19.418  0.00  0.00    +0.000 C 
ATOM      2  C7  UNL     1       1.205   0.267  17.930  0.00  0.00    +0.000 C 
ATOM      3  C8  UNL     1       1.384  -1.214  17.628  0.00  0.00    +0.000 C 
ATOM      4  C9  UNL     1       2.294   1.125  17.291  0.00  0.00    +0.000 C 
ATOM      5  C10 UNL     1       2.258   2.444  18.060  0.00  0.00    +0.000 C 
ATOM      6  C11 UNL     1       1.589   2.133  19.414  0.00  0.00    +0.000 C 
ENDROOT
BRANCH   6   7
ATOM      7  C12 UNL     1       2.317   2.643  20.641  0.00  0.00    +0.000 C 
ATOM      8  C13 UNL     1       3.143   1.753  21.330  0.00  0.00    +0.000 C 
ATOM      9  N1  UNL     1       3.859   2.061  22.434  0.00  0.00    +0.000 NA
ATOM     10  C14 UNL     1       3.764   3.320  22.897  0.00  0.00    +0.000 C 
ATOM     11  C15 UNL     1       2.987   4.290  22.297  0.00  0.00    +0.000 C 
ATOM     12  C16 UNL     1       2.257   3.951  21.153  0.00  0.00    +0.000 C 
BRANCH  12  13
ATOM     13  C17 UNL     1       1.481   4.990  20.538  0.00  0.00    +0.000 C 
ATOM     14  N2  UNL     1       0.838   5.827  20.059  0.00  0.00    +0.000 NA
ENDBRANCH  12  13
ENDBRANCH   6   7
BRANCH   1  15
ATOM     15  C5  UNL     1       0.058   0.258  20.181  0.00  0.00    +0.000 C 
ATOM     16  O1  UNL     1      -1.047   0.642  19.798  0.00  0.00    +0.000 OA
BRANCH  15  17
ATOM     17  C4  UNL     1       0.241  -0.566  21.448  0.00  0.00    +0.000 C 
BRANCH  17  19
ATOM     18  C1  UNL     1       0.300  -3.077  21.428  0.00  0.00    +0.000 C 
ATOM     19  C2  UNL     1       1.131  -1.803  21.255  0.00  0.00    +0.000 C 
ATOM     20  C3  UNL     1       2.298  -1.808  22.244  0.00  0.00    +0.000 C 
ENDBRANCH  17  19
ENDBRANCH  15  17
ENDBRANCH   1  15
TORSDOF 5
ENDMDL
MODEL 6
REMARK VINA RESULT:    -5.211     22.334     24.357
REMARK INTER + INTRA:          -8.563
REMARK INTER:                  -6.710
REMARK INTRA:                  -1.853
REMARK UNBOUND:                -1.829
REMARK  Name = ligantes_geracao2\Derivado_011.pdb
REMARK  8 active torsions:
REMARK  status: ('A' for Active; 'I' for Inactive)
REMARK    1  A    between atoms: C1_1  and  C2_2
REMARK    2  A    between atoms: C2_2  and  C3_3
REMARK    3  A    between atoms: C2_2  and  C4_4
REMARK    4  A    between atoms: C4_4  and  C5_5
REMARK    5  A    between atoms: C5_5  and  C6_7
REMARK    6  A    between atoms: C7_8  and  C8_9
REMARK    7  A    between atoms: C11_12  and  C12_13
REMARK    8  A    between atoms: C16_18  and  C17_19
REMARK                            x       y       z     vdW  Elec       q    Type
REMARK                         _______ _______ _______ _____ _____    ______ ____
ROOT
ATOM      1  C6  UNL     1      18.416  -6.676   1.764  0.00  0.00    +0.000 C 
ATOM      2  C7  UNL     1      19.867  -7.078   2.048  0.00  0.00    +0.000 C 
ATOM      3  C8  UNL     1      19.998  -8.266   2.990  0.00  0.00    +0.000 C 
ATOM      4  C9  UNL     1      20.464  -5.802   2.636  0.00  0.00    +0.000 C 
ATOM      5  C10 UNL     1      19.839  -4.667   1.829  0.00  0.00    +0.000 C 
ATOM      6  C11 UNL     1      18.543  -5.236   1.219  0.00  0.00    +0.000 C 
ENDROOT
BRANCH   6   7
ATOM      7  C12 UNL     1      17.300  -4.390   1.404  0.00  0.00    +0.000 C 
ATOM      8  C13 UNL     1      17.115  -3.757   2.634  0.00  0.00    +0.000 C 
ATOM      9  N1  UNL     1      16.063  -2.967   2.946  0.00  0.00    +0.000 NA
ATOM     10  C14 UNL     1      15.129  -2.783   1.997  0.00  0.00    +0.000 C 
ATOM     11  C15 UNL     1      15.207  -3.349   0.740  0.00  0.00    +0.000 C 
ATOM     12  C16 UNL     1      16.306  -4.159   0.436  0.00  0.00    +0.000 C 
BRANCH  12  13
ATOM     13  C17 UNL     1      16.369  -4.710  -0.887  0.00  0.00    +0.000 C 
ATOM     14  N2  UNL     1      16.397  -5.161  -1.955  0.00  0.00    +0.000 NA
ENDBRANCH  12  13
ENDBRANCH   6   7
BRANCH   1  15
ATOM     15  C5  UNL     1      17.766  -7.608   0.749  0.00  0.00    +0.000 C 
ATOM     16  O1  UNL     1      18.354  -7.948  -0.278  0.00  0.00    +0.000 OA
BRANCH  15  17
ATOM     17  C4  UNL     1      16.349  -8.063   1.065  0.00  0.00    +0.000 C 
BRANCH  17  19
ATOM     18  C1  UNL     1      15.746  -8.769   3.399  0.00  0.00    +0.000 C 
ATOM     19  C2  UNL     1      15.839  -7.585   2.434  0.00  0.00    +0.000 C 
ATOM     20  C3  UNL     1      14.473  -6.908   2.312  0.00  0.00    +0.000 C 
ENDBRANCH  17  19
ENDBRANCH  15  17
ENDBRANCH   1  15
TORSDOF 5
ENDMDL
MODEL 7
REMARK VINA RESULT:    -5.101      2.549      5.181
REMARK INTER + INTRA:          -8.421
REMARK INTER:                  -6.741
REMARK INTRA:                  -1.680
REMARK UNBOUND:                -1.829
REMARK  Name = ligantes_geracao2\Derivado_011.pdb
REMARK  8 active torsions:
REMARK  status: ('A' for Active; 'I' for Inactive)
REMARK    1  A    between atoms: C1_1  and  C2_2
REMARK    2  A    between atoms: C2_2  and  C3_3
REMARK    3  A    between atoms: C2_2  and  C4_4
REMARK    4  A    between atoms: C4_4  and  C5_5
REMARK    5  A    between atoms: C5_5  and  C6_7
REMARK    6  A    between atoms: C7_8  and  C8_9
REMARK    7  A    between atoms: C11_12  and  C12_13
REMARK    8  A    between atoms: C16_18  and  C17_19
REMARK                            x       y       z     vdW  Elec       q    Type
REMARK                         _______ _______ _______ _____ _____    ______ ____
ROOT
ATOM      1  C6  UNL     1       2.121   1.146  20.506  0.00  0.00    +0.000 C 
ATOM      2  C7  UNL     1       2.815   1.776  21.719  0.00  0.00    +0.000 C 
ATOM      3  C8  UNL     1       4.089   2.531  21.369  0.00  0.00    +0.000 C 
ATOM      4  C9  UNL     1       3.082   0.574  22.621  0.00  0.00    +0.000 C 
ATOM      5  C10 UNL     1       1.846  -0.310  22.473  0.00  0.00    +0.000 C 
ATOM      6  C11 UNL     1       1.189   0.088  21.137  0.00  0.00    +0.000 C 
ENDROOT
BRANCH   6   7
ATOM      7  C12 UNL     1       0.833  -1.057  20.211  0.00  0.00    +0.000 C 
ATOM      8  C13 UNL     1       1.780  -2.066  20.022  0.00  0.00    +0.000 C 
ATOM      9  N1  UNL     1       1.605  -3.150  19.234  0.00  0.00    +0.000 NA
ATOM     10  C14 UNL     1       0.432  -3.258  18.586  0.00  0.00    +0.000 C 
ATOM     11  C15 UNL     1      -0.583  -2.329  18.700  0.00  0.00    +0.000 C 
ATOM     12  C16 UNL     1      -0.383  -1.216  19.525  0.00  0.00    +0.000 C 
BRANCH  12  13
ATOM     13  C17 UNL     1      -1.468  -0.284  19.642  0.00  0.00    +0.000 C 
ATOM     14  N2  UNL     1      -2.328   0.488  19.734  0.00  0.00    +0.000 NA
ENDBRANCH  12  13
ENDBRANCH   6   7
BRANCH   1  15
ATOM     15  C5  UNL     1       1.340   2.183  19.709  0.00  0.00    +0.000 C 
ATOM     16  O1  UNL     1       0.421   2.824  20.218  0.00  0.00    +0.000 OA
BRANCH  15  17
ATOM     17  C4  UNL     1       1.742   2.352  18.251  0.00  0.00    +0.000 C 
BRANCH  17  19
ATOM     18  C1  UNL     1       1.846   0.251  16.879  0.00  0.00    +0.000 C 
ATOM     19  C2  UNL     1       0.970   1.436  17.289  0.00  0.00    +0.000 C 
ATOM     20  C3  UNL     1       0.514   2.198  16.042  0.00  0.00    +0.000 C 
ENDBRANCH  17  19
ENDBRANCH  15  17
ENDBRANCH   1  15
TORSDOF 5
ENDMDL
MODEL 8
REMARK VINA RESULT:    -5.048      2.367      4.647
REMARK INTER + INTRA:          -8.352
REMARK INTER:                  -6.900
REMARK INTRA:                  -1.452
REMARK UNBOUND:                -1.829
REMARK  Name = ligantes_geracao2\Derivado_011.pdb
REMARK  8 active torsions:
REMARK  status: ('A' for Active; 'I' for Inactive)
REMARK    1  A    between atoms: C1_1  and  C2_2
REMARK    2  A    between atoms: C2_2  and  C3_3
REMARK    3  A    between atoms: C2_2  and  C4_4
REMARK    4  A    between atoms: C4_4  and  C5_5
REMARK    5  A    between atoms: C5_5  and  C6_7
REMARK    6  A    between atoms: C7_8  and  C8_9
REMARK    7  A    between atoms: C11_12  and  C12_13
REMARK    8  A    between atoms: C16_18  and  C17_19
REMARK                            x       y       z     vdW  Elec       q    Type
REMARK                         _______ _______ _______ _____ _____    ______ ____
ROOT
ATOM      1  C6  UNL     1       0.256  -0.436  20.918  0.00  0.00    +0.000 C 
ATOM      2  C7  UNL     1      -0.085  -1.930  20.870  0.00  0.00    +0.000 C 
ATOM      3  C8  UNL     1      -1.485  -2.252  21.375  0.00  0.00    +0.000 C 
ATOM      4  C9  UNL     1       1.003  -2.555  21.738  0.00  0.00    +0.000 C 
ATOM      5  C10 UNL     1       2.269  -1.767  21.410  0.00  0.00    +0.000 C 
ATOM      6  C11 UNL     1       1.798  -0.419  20.831  0.00  0.00    +0.000 C 
ENDROOT
BRANCH   6   7
ATOM      7  C12 UNL     1       2.440   0.816  21.431  0.00  0.00    +0.000 C 
ATOM      8  C13 UNL     1       2.645   0.844  22.811  0.00  0.00    +0.000 C 
ATOM      9  N1  UNL     1       3.209   1.869  23.487  0.00  0.00    +0.000 NA
ATOM     10  C14 UNL     1       3.599   2.938  22.771  0.00  0.00    +0.000 C 
ATOM     11  C15 UNL     1       3.457   3.023  21.401  0.00  0.00    +0.000 C 
ATOM     12  C16 UNL     1       2.874   1.949  20.720  0.00  0.00    +0.000 C 
BRANCH  12  13
ATOM     13  C17 UNL     1       2.765   2.058  19.293  0.00  0.00    +0.000 C 
ATOM     14  N2  UNL     1       2.663   2.126  18.140  0.00  0.00    +0.000 NA
ENDBRANCH  12  13
ENDBRANCH   6   7
BRANCH   1  15
ATOM     15  C5  UNL     1      -0.383   0.320  19.760  0.00  0.00    +0.000 C 
ATOM     16  O1  UNL     1      -0.705   1.503  19.867  0.00  0.00    +0.000 OA
BRANCH  15  17
ATOM     17  C4  UNL     1      -0.624  -0.479  18.488  0.00  0.00    +0.000 C 
BRANCH  17  19
ATOM     18  C1  UNL     1      -0.023  -0.066  16.084  0.00  0.00    +0.000 C 
ATOM     19  C2  UNL     1       0.528  -0.387  17.475  0.00  0.00    +0.000 C 
ATOM     20  C3  UNL     1       1.330  -1.689  17.426  0.00  0.00    +0.000 C 
ENDBRANCH  17  19
ENDBRANCH  15  17
ENDBRANCH   1  15
TORSDOF 5
ENDMDL
MODEL 9
REMARK VINA RESULT:    -5.001     22.909     24.876
REMARK INTER + INTRA:          -8.291
REMARK INTER:                  -6.773
REMARK INTRA:                  -1.518
REMARK UNBOUND:                -1.829
REMARK  Name = ligantes_geracao2\Derivado_011.pdb
REMARK  8 active torsions:
REMARK  status: ('A' for Active; 'I' for Inactive)
REMARK    1  A    between atoms: C1_1  and  C2_2
REMARK    2  A    between atoms: C2_2  and  C3_3
REMARK    3  A    between atoms: C2_2  and  C4_4
REMARK    4  A    between atoms: C4_4  and  C5_5
REMARK    5  A    between atoms: C5_5  and  C6_7
REMARK    6  A    between atoms: C7_8  and  C8_9
REMARK    7  A    between atoms: C11_12  and  C12_13
REMARK    8  A    between atoms: C16_18  and  C17_19
REMARK                            x       y       z     vdW  Elec       q    Type
REMARK                         _______ _______ _______ _____ _____    ______ ____
ROOT
ATOM      1  C6  UNL     1      18.447  -7.974   2.547  0.00  0.00    +0.000 C 
ATOM      2  C7  UNL     1      19.899  -8.262   2.947  0.00  0.00    +0.000 C 
ATOM      3  C8  UNL     1      20.070  -8.590   4.424  0.00  0.00    +0.000 C 
ATOM      4  C9  UNL     1      20.622  -6.979   2.549  0.00  0.00    +0.000 C 
ATOM      5  C10 UNL     1      19.972  -6.551   1.236  0.00  0.00    +0.000 C 
ATOM      6  C11 UNL     1      18.589  -7.231   1.200  0.00  0.00    +0.000 C 
ENDROOT
BRANCH   6   7
ATOM      7  C12 UNL     1      17.420  -6.327   0.863  0.00  0.00    +0.000 C 
ATOM      8  C13 UNL     1      16.924  -5.495   1.868  0.00  0.00    +0.000 C 
ATOM      9  N1  UNL     1      15.893  -4.633   1.718  0.00  0.00    +0.000 NA
ATOM     10  C14 UNL     1      15.307  -4.579   0.509  0.00  0.00    +0.000 C 
ATOM     11  C15 UNL     1      15.714  -5.347  -0.563  0.00  0.00    +0.000 C 
ATOM     12  C16 UNL     1      16.786  -6.229  -0.388  0.00  0.00    +0.000 C 
BRANCH  12  13
ATOM     13  C17 UNL     1      17.201  -6.992  -1.529  0.00  0.00    +0.000 C 
ATOM     14  N2  UNL     1      17.540  -7.589  -2.465  0.00  0.00    +0.000 NA
ENDBRANCH  12  13
ENDBRANCH   6   7
BRANCH   1  15
ATOM     15  C5  UNL     1      17.642  -9.259   2.400  0.00  0.00    +0.000 C 
ATOM     16  O1  UNL     1      18.124 -10.261   1.871  0.00  0.00    +0.000 OA
BRANCH  15  17
ATOM     17  C4  UNL     1      16.211  -9.218   2.914  0.00  0.00    +0.000 C 
BRANCH  17  19
ATOM     18  C1  UNL     1      14.225  -8.036   1.928  0.00  0.00    +0.000 C 
ATOM     19  C2  UNL     1      15.154  -9.246   1.799  0.00  0.00    +0.000 C 
ATOM     20  C3  UNL     1      14.333 -10.536   1.844  0.00  0.00    +0.000 C 
ENDBRANCH  17  19
ENDBRANCH  15  17
ENDBRANCH   1  15
TORSDOF 5
ENDMDL
