MODEL 1
REMARK VINA RESULT:    -8.188      0.000      0.000
REMARK INTER + INTRA:         -11.973
REMARK INTER:                 -11.060
REMARK INTRA:                  -0.913
REMARK UNBOUND:                -0.913
REMARK  Name = ligantes_geracao2\Derivado_010.pdb
REMARK  8 active torsions:
REMARK  status: ('A' for Active; 'I' for Inactive)
REMARK    1  A    between atoms: C1_1  and  C2_2
REMARK    2  A    between atoms: C2_2  and  C3_3
REMARK    3  A    between atoms: C3_3  and  C4_4
REMARK    4  A    between atoms: C4_4  and  C5_6
REMARK    5  A    between atoms: C6_7  and  C7_8
REMARK    6  A    between atoms: C7_8  and  C8_9
REMARK    7  A    between atoms: C11_12  and  C12_13
REMARK    8  A    between atoms: C16_18  and  C17_19
REMARK                            x       y       z     vdW  Elec       q    Type
REMARK                         _______ _______ _______ _____ _____    ______ ____
ROOT
ATOM      1  C5  UNL     1       1.942  67.187  65.698  0.00  0.00    +0.000 C 
ATOM      2  C6  UNL     1       1.615  67.253  67.214  0.00  0.00    +0.000 C 
ATOM      3  C9  UNL     1       2.125  68.624  67.686  0.00  0.00    +0.000 C 
ATOM      4  C10 UNL     1       3.203  68.999  66.679  0.00  0.00    +0.000 C 
ATOM      5  C11 UNL     1       2.577  68.555  65.351  0.00  0.00    +0.000 C 
ENDROOT
BRANCH   5   6
ATOM      6  C12 UNL     1       3.435  68.607  64.104  0.00  0.00    +0.000 C 
ATOM      7  C13 UNL     1       4.824  68.689  64.164  0.00  0.00    +0.000 C 
ATOM      8  N1  UNL     1       5.637  68.749  63.083  0.00  0.00    +0.000 NA
ATOM      9  C14 UNL     1       5.061  68.715  61.869  0.00  0.00    +0.000 C 
ATOM     10  C15 UNL     1       3.698  68.621  61.681  0.00  0.00    +0.000 C 
ATOM     11  C16 UNL     1       2.876  68.567  62.811  0.00  0.00    +0.000 C 
BRANCH  11  12
ATOM     12  C17 UNL     1       1.460  68.459  62.607  0.00  0.00    +0.000 C 
ATOM     13  N2  UNL     1       0.311  68.401  62.454  0.00  0.00    +0.000 NA
ENDBRANCH  11  12
ENDBRANCH   5   6
BRANCH   1  14
ATOM     14  C4  UNL     1       2.893  66.020  65.422  0.00  0.00    +0.000 C 
ATOM     15  O1  UNL     1       3.118  65.636  64.275  0.00  0.00    +0.000 OA
BRANCH  14  16
ATOM     16  C3  UNL     1       3.562  65.393  66.636  0.00  0.00    +0.000 C 
BRANCH  16  18
ATOM     17  C1  UNL     1       5.487  65.543  68.281  0.00  0.00    +0.000 C 
ATOM     18  C2  UNL     1       4.975  65.907  66.894  0.00  0.00    +0.000 C 
ENDBRANCH  16  18
ENDBRANCH  14  16
ENDBRANCH   1  14
BRANCH   2  19
ATOM     19  C7  UNL     1       0.126  67.073  67.537  0.00  0.00    +0.000 C 
ATOM     20  C8  UNL     1      -0.782  67.409  66.363  0.00  0.00    +0.000 C 
ENDBRANCH   2  19
TORSDOF 6
ENDMDL
MODEL 2
REMARK VINA RESULT:    -7.912      1.428      1.959
REMARK INTER + INTRA:         -11.600
REMARK INTER:                 -10.809
REMARK INTRA:                  -0.791
REMARK UNBOUND:                -0.913
REMARK  Name = ligantes_geracao2\Derivado_010.pdb
REMARK  8 active torsions:
REMARK  status: ('A' for Active; 'I' for Inactive)
REMARK    1  A    between atoms: C1_1  and  C2_2
REMARK    2  A    between atoms: C2_2  and  C3_3
REMARK    3  A    between atoms: C3_3  and  C4_4
REMARK    4  A    between atoms: C4_4  and  C5_6
REMARK    5  A    between atoms: C6_7  and  C7_8
REMARK    6  A    between atoms: C7_8  and  C8_9
REMARK    7  A    between atoms: C11_12  and  C12_13
REMARK    8  A    between atoms: C16_18  and  C17_19
REMARK                            x       y       z     vdW  Elec       q    Type
REMARK                         _______ _______ _______ _____ _____    ______ ____
ROOT
ATOM      1  C5  UNL     1       2.359  66.987  65.905  0.00  0.00    +0.000 C 
ATOM      2  C6  UNL     1       2.364  67.086  67.454  0.00  0.00    +0.000 C 
ATOM      3  C9  UNL     1       2.764  68.536  67.773  0.00  0.00    +0.000 C 
ATOM      4  C10 UNL     1       3.531  69.001  66.543  0.00  0.00    +0.000 C 
ATOM      5  C11 UNL     1       2.701  68.408  65.397  0.00  0.00    +0.000 C 
ENDROOT
BRANCH   5   6
ATOM      6  C12 UNL     1       3.250  68.511  63.990  0.00  0.00    +0.000 C 
ATOM      7  C13 UNL     1       4.612  68.644  63.735  0.00  0.00    +0.000 C 
ATOM      8  N1  UNL     1       5.155  68.751  62.499  0.00  0.00    +0.000 NA
ATOM      9  C14 UNL     1       4.319  68.714  61.447  0.00  0.00    +0.000 C 
ATOM     10  C15 UNL     1       2.953  68.572  61.572  0.00  0.00    +0.000 C 
ATOM     11  C16 UNL     1       2.412  68.470  62.857  0.00  0.00    +0.000 C 
BRANCH  11  12
ATOM     12  C17 UNL     1       0.991  68.314  62.978  0.00  0.00    +0.000 C 
ATOM     13  N2  UNL     1      -0.161  68.217  63.077  0.00  0.00    +0.000 NA
ENDBRANCH  11  12
ENDBRANCH   5   6
BRANCH   1  14
ATOM     14  C4  UNL     1       3.384  65.946  65.448  0.00  0.00    +0.000 C 
ATOM     15  O1  UNL     1       4.473  65.832  66.010  0.00  0.00    +0.000 OA
BRANCH  14  16
ATOM     16  C3  UNL     1       2.966  65.048  64.293  0.00  0.00    +0.000 C 
BRANCH  16  18
ATOM     17  C1  UNL     1       4.703  63.617  63.122  0.00  0.00    +0.000 C 
ATOM     18  C2  UNL     1       3.696  63.708  64.261  0.00  0.00    +0.000 C 
ENDBRANCH  16  18
ENDBRANCH  14  16
ENDBRANCH   1  14
BRANCH   2  19
ATOM     19  C7  UNL     1       1.024  66.724  68.105  0.00  0.00    +0.000 C 
ATOM     20  C8  UNL     1       1.180  65.868  69.354  0.00  0.00    +0.000 C 
ENDBRANCH   2  19
TORSDOF 6
ENDMDL
MODEL 3
REMARK VINA RESULT:    -7.593      2.366      4.896
REMARK INTER + INTRA:         -11.169
REMARK INTER:                 -10.015
REMARK INTRA:                  -1.154
REMARK UNBOUND:                -0.913
REMARK  Name = ligantes_geracao2\Derivado_010.pdb
REMARK  8 active torsions:
REMARK  status: ('A' for Active; 'I' for Inactive)
REMARK    1  A    between atoms: C1_1  and  C2_2
REMARK    2  A    between atoms: C2_2  and  C3_3
REMARK    3  A    between atoms: C3_3  and  C4_4
REMARK    4  A    between atoms: C4_4  and  C5_6
REMARK    5  A    between atoms: C6_7  and  C7_8
REMARK    6  A    between atoms: C7_8  and  C8_9
REMARK    7  A    between atoms: C11_12  and  C12_13
REMARK    8  A    between atoms: C16_18  and  C17_19
REMARK                            x       y       z     vdW  Elec       q    Type
REMARK                         _______ _______ _______ _____ _____    ______ ____
ROOT
ATOM      1  C5  UNL     1       2.862  67.548  64.424  0.00  0.00    +0.000 C 
ATOM      2  C6  UNL     1       3.213  68.710  63.457  0.00  0.00    +0.000 C 
ATOM      3  C9  UNL     1       4.743  68.854  63.526  0.00  0.00    +0.000 C 
ATOM      4  C10 UNL     1       5.122  68.269  64.879  0.00  0.00    +0.000 C 
ATOM      5  C11 UNL     1       4.217  67.033  64.964  0.00  0.00    +0.000 C 
ENDROOT
BRANCH   5   6
ATOM      6  C12 UNL     1       4.178  66.266  66.269  0.00  0.00    +0.000 C 
ATOM      7  C13 UNL     1       4.450  66.872  67.493  0.00  0.00    +0.000 C 
ATOM      8  N1  UNL     1       4.441  66.231  68.685  0.00  0.00    +0.000 NA
ATOM      9  C14 UNL     1       4.135  64.922  68.686  0.00  0.00    +0.000 C 
ATOM     10  C15 UNL     1       3.835  64.215  67.541  0.00  0.00    +0.000 C 
ATOM     11  C16 UNL     1       3.857  64.894  66.319  0.00  0.00    +0.000 C 
BRANCH  11  12
ATOM     12  C17 UNL     1       3.534  64.154  65.133  0.00  0.00    +0.000 C 
ATOM     13  N2  UNL     1       3.303  63.550  64.170  0.00  0.00    +0.000 NA
ENDBRANCH  11  12
ENDBRANCH   5   6
BRANCH   1  14
ATOM     14  C4  UNL     1       1.948  68.060  65.540  0.00  0.00    +0.000 C 
ATOM     15  O1  UNL     1       2.232  69.069  66.185  0.00  0.00    +0.000 OA
BRANCH  14  16
ATOM     16  C3  UNL     1       0.667  67.275  65.778  0.00  0.00    +0.000 C 
BRANCH  16  18
ATOM     17  C1  UNL     1       0.775  66.653  68.235  0.00  0.00    +0.000 C 
ATOM     18  C2  UNL     1       0.070  67.479  67.168  0.00  0.00    +0.000 C 
ENDBRANCH  16  18
ENDBRANCH  14  16
ENDBRANCH   1  14
BRANCH   2  19
ATOM     19  C7  UNL     1       2.741  68.484  62.015  0.00  0.00    +0.000 C 
ATOM     20  C8  UNL     1       1.260  68.774  61.822  0.00  0.00    +0.000 C 
ENDBRANCH   2  19
TORSDOF 6
ENDMDL
MODEL 4
REMARK VINA RESULT:    -7.066      7.191      9.837
REMARK INTER + INTRA:         -10.457
REMARK INTER:                  -9.560
REMARK INTRA:                  -0.897
REMARK UNBOUND:                -0.913
REMARK  Name = ligantes_geracao2\Derivado_010.pdb
REMARK  8 active torsions:
REMARK  status: ('A' for Active; 'I' for Inactive)
REMARK    1  A    between atoms: C1_1  and  C2_2
REMARK    2  A    between atoms: C2_2  and  C3_3
REMARK    3  A    between atoms: C3_3  and  C4_4
REMARK    4  A    between atoms: C4_4  and  C5_6
REMARK    5  A    between atoms: C6_7  and  C7_8
REMARK    6  A    between atoms: C7_8  and  C8_9
REMARK    7  A    between atoms: C11_12  and  C12_13
REMARK    8  A    between atoms: C16_18  and  C17_19
REMARK                            x       y       z     vdW  Elec       q    Type
REMARK                         _______ _______ _______ _____ _____    ______ ____
ROOT
ATOM      1  C5  UNL     1       3.507  62.323  70.428  0.00  0.00    +0.000 C 
ATOM      2  C6  UNL     1       4.106  63.126  69.241  0.00  0.00    +0.000 C 
ATOM      3  C9  UNL     1       3.215  62.799  68.032  0.00  0.00    +0.000 C 
ATOM      4  C10 UNL     1       2.589  61.453  68.369  0.00  0.00    +0.000 C 
ATOM      5  C11 UNL     1       2.256  61.612  69.858  0.00  0.00    +0.000 C 
ENDROOT
BRANCH   5   6
ATOM      6  C12 UNL     1       1.765  60.395  70.614  0.00  0.00    +0.000 C 
ATOM      7  C13 UNL     1       2.221  59.112  70.327  0.00  0.00    +0.000 C 
ATOM      8  N1  UNL     1       1.808  57.990  70.963  0.00  0.00    +0.000 NA
ATOM      9  C14 UNL     1       0.904  58.130  71.948  0.00  0.00    +0.000 C 
ATOM     10  C15 UNL     1       0.388  59.350  72.331  0.00  0.00    +0.000 C 
ATOM     11  C16 UNL     1       0.823  60.496  71.657  0.00  0.00    +0.000 C 
BRANCH  11  12
ATOM     12  C17 UNL     1       0.288  61.761  72.070  0.00  0.00    +0.000 C 
ATOM     13  N2  UNL     1      -0.119  62.799  72.392  0.00  0.00    +0.000 NA
ENDBRANCH  11  12
ENDBRANCH   5   6
BRANCH   1  14
ATOM     14  C4  UNL     1       4.544  61.332  70.960  0.00  0.00    +0.000 C 
ATOM     15  O1  UNL     1       5.431  60.883  70.234  0.00  0.00    +0.000 OA
BRANCH  14  16
ATOM     16  C3  UNL     1       4.436  60.967  72.433  0.00  0.00    +0.000 C 
BRANCH  16  18
ATOM     17  C1  UNL     1       3.795  58.974  73.866  0.00  0.00    +0.000 C 
ATOM     18  C2  UNL     1       4.653  59.483  72.716  0.00  0.00    +0.000 C 
ENDBRANCH  16  18
ENDBRANCH  14  16
ENDBRANCH   1  14
BRANCH   2  19
ATOM     19  C7  UNL     1       4.177  64.638  69.487  0.00  0.00    +0.000 C 
ATOM     20  C8  UNL     1       5.343  65.303  68.771  0.00  0.00    +0.000 C 
ENDBRANCH   2  19
TORSDOF 6
ENDMDL
MODEL 5
REMARK VINA RESULT:    -6.948      7.470      9.335
REMARK INTER + INTRA:         -10.297
REMARK INTER:                  -8.935
REMARK INTRA:                  -1.362
REMARK UNBOUND:                -0.913
REMARK  Name = ligantes_geracao2\Derivado_010.pdb
REMARK  8 active torsions:
REMARK  status: ('A' for Active; 'I' for Inactive)
REMARK    1  A    between atoms: C1_1  and  C2_2
REMARK    2  A    between atoms: C2_2  and  C3_3
REMARK    3  A    between atoms: C3_3  and  C4_4
REMARK    4  A    between atoms: C4_4  and  C5_6
REMARK    5  A    between atoms: C6_7  and  C7_8
REMARK    6  A    between atoms: C7_8  and  C8_9
REMARK    7  A    between atoms: C11_12  and  C12_13
REMARK    8  A    between atoms: C16_18  and  C17_19
REMARK                            x       y       z     vdW  Elec       q    Type
REMARK                         _______ _______ _______ _____ _____    ______ ____
ROOT
ATOM      1  C5  UNL     1       1.213  60.609  71.994  0.00  0.00    +0.000 C 
ATOM      2  C6  UNL     1       0.023  60.271  72.932  0.00  0.00    +0.000 C 
ATOM      3  C9  UNL     1      -1.193  60.997  72.334  0.00  0.00    +0.000 C 
ATOM      4  C10 UNL     1      -0.596  62.140  71.524  0.00  0.00    +0.000 C 
ATOM      5  C11 UNL     1       0.612  61.471  70.857  0.00  0.00    +0.000 C 
ENDROOT
BRANCH   5   6
ATOM      6  C12 UNL     1       1.579  62.347  70.089  0.00  0.00    +0.000 C 
ATOM      7  C13 UNL     1       1.546  63.737  70.173  0.00  0.00    +0.000 C 
ATOM      8  N1  UNL     1       2.378  64.566  69.500  0.00  0.00    +0.000 NA
ATOM      9  C14 UNL     1       3.307  64.006  68.706  0.00  0.00    +0.000 C 
ATOM     10  C15 UNL     1       3.446  62.643  68.551  0.00  0.00    +0.000 C 
ATOM     11  C16 UNL     1       2.572  61.804  69.250  0.00  0.00    +0.000 C 
BRANCH  11  12
ATOM     12  C17 UNL     1       2.731  60.387  69.090  0.00  0.00    +0.000 C 
ATOM     13  N2  UNL     1       2.876  59.241  68.987  0.00  0.00    +0.000 NA
ENDBRANCH  11  12
ENDBRANCH   5   6
BRANCH   1  14
ATOM     14  C4  UNL     1       2.296  61.354  72.776  0.00  0.00    +0.000 C 
ATOM     15  O1  UNL     1       2.009  62.255  73.565  0.00  0.00    +0.000 OA
BRANCH  14  16
ATOM     16  C3  UNL     1       3.729  60.898  72.549  0.00  0.00    +0.000 C 
BRANCH  16  18
ATOM     17  C1  UNL     1       3.766  58.758  73.912  0.00  0.00    +0.000 C 
ATOM     18  C2  UNL     1       3.895  59.381  72.528  0.00  0.00    +0.000 C 
ENDBRANCH  16  18
ENDBRANCH  14  16
ENDBRANCH   1  14
BRANCH   2  19
ATOM     19  C7  UNL     1      -0.244  58.768  73.081  0.00  0.00    +0.000 C 
ATOM     20  C8  UNL     1       0.620  57.916  72.161  0.00  0.00    +0.000 C 
ENDBRANCH   2  19
TORSDOF 6
ENDMDL
MODEL 6
REMARK VINA RESULT:    -6.295      8.771     11.545
REMARK INTER + INTRA:          -9.415
REMARK INTER:                  -8.468
REMARK INTRA:                  -0.947
REMARK UNBOUND:                -0.913
REMARK  Name = ligantes_geracao2\Derivado_010.pdb
REMARK  8 active torsions:
REMARK  status: ('A' for Active; 'I' for Inactive)
REMARK    1  A    between atoms: C1_1  and  C2_2
REMARK    2  A    between atoms: C2_2  and  C3_3
REMARK    3  A    between atoms: C3_3  and  C4_4
REMARK    4  A    between atoms: C4_4  and  C5_6
REMARK    5  A    between atoms: C6_7  and  C7_8
REMARK    6  A    between atoms: C7_8  and  C8_9
REMARK    7  A    between atoms: C11_12  and  C12_13
REMARK    8  A    between atoms: C16_18  and  C17_19
REMARK                            x       y       z     vdW  Elec       q    Type
REMARK                         _______ _______ _______ _____ _____    ______ ____
ROOT
ATOM      1  C5  UNL     1       2.925  60.368  71.815  0.00  0.00    +0.000 C 
ATOM      2  C6  UNL     1       4.140  59.726  71.093  0.00  0.00    +0.000 C 
ATOM      3  C9  UNL     1       3.544  58.688  70.128  0.00  0.00    +0.000 C 
ATOM      4  C10 UNL     1       2.190  58.339  70.729  0.00  0.00    +0.000 C 
ATOM      5  C11 UNL     1       1.674  59.709  71.187  0.00  0.00    +0.000 C 
ENDROOT
BRANCH   5   6
ATOM      6  C12 UNL     1       0.401  59.756  72.006  0.00  0.00    +0.000 C 
ATOM      7  C13 UNL     1      -0.009  58.687  72.798  0.00  0.00    +0.000 C 
ATOM      8  N1  UNL     1      -1.141  58.671  73.540  0.00  0.00    +0.000 NA
ATOM      9  C14 UNL     1      -1.916  59.770  73.518  0.00  0.00    +0.000 C 
ATOM     10  C15 UNL     1      -1.608  60.896  72.783  0.00  0.00    +0.000 C 
ATOM     11  C16 UNL     1      -0.437  60.889  72.018  0.00  0.00    +0.000 C 
BRANCH  11  12
ATOM     12  C17 UNL     1      -0.121  62.067  71.264  0.00  0.00    +0.000 C 
ATOM     13  N2  UNL     1       0.115  63.036  70.671  0.00  0.00    +0.000 NA
ENDBRANCH  11  12
ENDBRANCH   5   6
BRANCH   1  14
ATOM     14  C4  UNL     1       3.022  60.112  73.320  0.00  0.00    +0.000 C 
ATOM     15  O1  UNL     1       2.398  60.801  74.127  0.00  0.00    +0.000 OA
BRANCH  14  16
ATOM     16  C3  UNL     1       3.898  58.947  73.753  0.00  0.00    +0.000 C 
BRANCH  16  18
ATOM     17  C1  UNL     1       3.756  57.871  76.046  0.00  0.00    +0.000 C 
ATOM     18  C2  UNL     1       3.180  57.932  74.638  0.00  0.00    +0.000 C 
ENDBRANCH  16  18
ENDBRANCH  14  16
ENDBRANCH   1  14
BRANCH   2  19
ATOM     19  C7  UNL     1       5.025  60.733  70.348  0.00  0.00    +0.000 C 
ATOM     20  C8  UNL     1       4.437  62.137  70.323  0.00  0.00    +0.000 C 
ENDBRANCH   2  19
TORSDOF 6
ENDMDL
MODEL 7
REMARK VINA RESULT:    -5.899     21.392     23.302
REMARK INTER + INTRA:          -8.881
REMARK INTER:                  -7.525
REMARK INTRA:                  -1.356
REMARK UNBOUND:                -0.913
REMARK  Name = ligantes_geracao2\Derivado_010.pdb
REMARK  8 active torsions:
REMARK  status: ('A' for Active; 'I' for Inactive)
REMARK    1  A    between atoms: C1_1  and  C2_2
REMARK    2  A    between atoms: C2_2  and  C3_3
REMARK    3  A    between atoms: C3_3  and  C4_4
REMARK    4  A    between atoms: C4_4  and  C5_6
REMARK    5  A    between atoms: C6_7  and  C7_8
REMARK    6  A    between atoms: C7_8  and  C8_9
REMARK    7  A    between atoms: C11_12  and  C12_13
REMARK    8  A    between atoms: C16_18  and  C17_19
REMARK                            x       y       z     vdW  Elec       q    Type
REMARK                         _______ _______ _______ _____ _____    ______ ____
ROOT
ATOM      1  C5  UNL     1      14.566  50.390  59.107  0.00  0.00    +0.000 C 
ATOM      2  C6  UNL     1      14.542  51.317  60.352  0.00  0.00    +0.000 C 
ATOM      3  C9  UNL     1      15.495  50.666  61.368  0.00  0.00    +0.000 C 
ATOM      4  C10 UNL     1      15.532  49.197  60.972  0.00  0.00    +0.000 C 
ATOM      5  C11 UNL     1      15.584  49.273  59.441  0.00  0.00    +0.000 C 
ENDROOT
BRANCH   5   6
ATOM      6  C12 UNL     1      15.456  47.983  58.658  0.00  0.00    +0.000 C 
ATOM      7  C13 UNL     1      14.756  46.884  59.150  0.00  0.00    +0.000 C 
ATOM      8  N1  UNL     1      14.620  45.706  58.498  0.00  0.00    +0.000 NA
ATOM      9  C14 UNL     1      15.192  45.596  57.286  0.00  0.00    +0.000 C 
ATOM     10  C15 UNL     1      15.898  46.618  56.688  0.00  0.00    +0.000 C 
ATOM     11  C16 UNL     1      16.032  47.825  57.382  0.00  0.00    +0.000 C 
BRANCH  11  12
ATOM     12  C17 UNL     1      16.760  48.886  56.748  0.00  0.00    +0.000 C 
ATOM     13  N2  UNL     1      17.325  49.762  56.238  0.00  0.00    +0.000 NA
ENDBRANCH  11  12
ENDBRANCH   5   6
BRANCH   1  14
ATOM     14  C4  UNL     1      13.164  49.837  58.843  0.00  0.00    +0.000 C 
ATOM     15  O1  UNL     1      12.431  49.488  59.768  0.00  0.00    +0.000 OA
BRANCH  14  16
ATOM     16  C3  UNL     1      12.723  49.777  57.389  0.00  0.00    +0.000 C 
BRANCH  16  18
ATOM     17  C1  UNL     1      13.650  49.978  55.036  0.00  0.00    +0.000 C 
ATOM     18  C2  UNL     1      13.622  50.566  56.440  0.00  0.00    +0.000 C 
ENDBRANCH  16  18
ENDBRANCH  14  16
ENDBRANCH   1  14
BRANCH   2  19
ATOM     19  C7  UNL     1      14.948  52.766  60.056  0.00  0.00    +0.000 C 
ATOM     20  C8  UNL     1      16.324  53.120  60.602  0.00  0.00    +0.000 C 
ENDBRANCH   2  19
TORSDOF 6
ENDMDL
MODEL 8
REMARK VINA RESULT:    -5.890     20.639     22.605
REMARK INTER + INTRA:          -8.868
REMARK INTER:                  -7.444
REMARK INTRA:                  -1.424
REMARK UNBOUND:                -0.913
REMARK  Name = ligantes_geracao2\Derivado_010.pdb
REMARK  8 active torsions:
REMARK  status: ('A' for Active; 'I' for Inactive)
REMARK    1  A    between atoms: C1_1  and  C2_2
REMARK    2  A    between atoms: C2_2  and  C3_3
REMARK    3  A    between atoms: C3_3  and  C4_4
REMARK    4  A    between atoms: C4_4  and  C5_6
REMARK    5  A    between atoms: C6_7  and  C7_8
REMARK    6  A    between atoms: C7_8  and  C8_9
REMARK    7  A    between atoms: C11_12  and  C12_13
REMARK    8  A    between atoms: C16_18  and  C17_19
REMARK                            x       y       z     vdW  Elec       q    Type
REMARK                         _______ _______ _______ _____ _____    ______ ____
ROOT
ATOM      1  C5  UNL     1      14.462  48.817  60.760  0.00  0.00    +0.000 C 
ATOM      2  C6  UNL     1      14.602  47.821  61.943  0.00  0.00    +0.000 C 
ATOM      3  C9  UNL     1      14.379  46.426  61.335  0.00  0.00    +0.000 C 
ATOM      4  C10 UNL     1      13.558  46.683  60.079  0.00  0.00    +0.000 C 
ATOM      5  C11 UNL     1      14.222  47.942  59.507  0.00  0.00    +0.000 C 
ENDROOT
BRANCH   5   6
ATOM      6  C12 UNL     1      13.565  48.620  58.323  0.00  0.00    +0.000 C 
ATOM      7  C13 UNL     1      12.198  48.524  58.079  0.00  0.00    +0.000 C 
ATOM      8  N1  UNL     1      11.563  49.100  57.032  0.00  0.00    +0.000 NA
ATOM      9  C14 UNL     1      12.304  49.825  56.176  0.00  0.00    +0.000 C 
ATOM     10  C15 UNL     1      13.664  50.004  56.319  0.00  0.00    +0.000 C 
ATOM     11  C16 UNL     1      14.302  49.395  57.404  0.00  0.00    +0.000 C 
BRANCH  11  12
ATOM     12  C17 UNL     1      15.715  49.594  57.551  0.00  0.00    +0.000 C 
ATOM     13  N2  UNL     1      16.863  49.733  57.649  0.00  0.00    +0.000 NA
ENDBRANCH  11  12
ENDBRANCH   5   6
BRANCH   1  14
ATOM     14  C4  UNL     1      13.303  49.779  61.027  0.00  0.00    +0.000 C 
ATOM     15  O1  UNL     1      12.258  49.392  61.549  0.00  0.00    +0.000 OA
BRANCH  14  16
ATOM     16  C3  UNL     1      13.530  51.233  60.642  0.00  0.00    +0.000 C 
BRANCH  16  18
ATOM     17  C1  UNL     1      15.274  52.735  59.576  0.00  0.00    +0.000 C 
ATOM     18  C2  UNL     1      15.002  51.634  60.592  0.00  0.00    +0.000 C 
ENDBRANCH  16  18
ENDBRANCH  14  16
ENDBRANCH   1  14
BRANCH   2  19
ATOM     19  C7  UNL     1      15.951  47.901  62.667  0.00  0.00    +0.000 C 
ATOM     20  C8  UNL     1      16.355  49.327  63.016  0.00  0.00    +0.000 C 
ENDBRANCH   2  19
TORSDOF 6
ENDMDL
MODEL 9
REMARK VINA RESULT:    -5.887     20.905     22.930
REMARK INTER + INTRA:          -8.864
REMARK INTER:                  -7.638
REMARK INTRA:                  -1.226
REMARK UNBOUND:                -0.913
REMARK  Name = ligantes_geracao2\Derivado_010.pdb
REMARK  8 active torsions:
REMARK  status: ('A' for Active; 'I' for Inactive)
REMARK    1  A    between atoms: C1_1  and  C2_2
REMARK    2  A    between atoms: C2_2  and  C3_3
REMARK    3  A    between atoms: C3_3  and  C4_4
REMARK    4  A    between atoms: C4_4  and  C5_6
REMARK    5  A    between atoms: C6_7  and  C7_8
REMARK    6  A    between atoms: C7_8  and  C8_9
REMARK    7  A    between atoms: C11_12  and  C12_13
REMARK    8  A    between atoms: C16_18  and  C17_19
REMARK                            x       y       z     vdW  Elec       q    Type
REMARK                         _______ _______ _______ _____ _____    ______ ____
ROOT
ATOM      1  C5  UNL     1      13.990  49.747  58.314  0.00  0.00    +0.000 C 
ATOM      2  C6  UNL     1      14.460  50.663  57.152  0.00  0.00    +0.000 C 
ATOM      3  C9  UNL     1      15.952  50.347  56.957  0.00  0.00    +0.000 C 
ATOM      4  C10 UNL     1      16.405  49.792  58.300  0.00  0.00    +0.000 C 
ATOM      5  C11 UNL     1      15.225  48.897  58.698  0.00  0.00    +0.000 C 
ENDROOT
BRANCH   5   6
ATOM      6  C12 UNL     1      15.224  48.291  60.086  0.00  0.00    +0.000 C 
ATOM      7  C13 UNL     1      15.951  48.845  61.136  0.00  0.00    +0.000 C 
ATOM      8  N1  UNL     1      15.995  48.338  62.390  0.00  0.00    +0.000 NA
ATOM      9  C14 UNL     1      15.276  47.229  62.639  0.00  0.00    +0.000 C 
ATOM     10  C15 UNL     1      14.507  46.597  61.685  0.00  0.00    +0.000 C 
ATOM     11  C16 UNL     1      14.481  47.134  60.393  0.00  0.00    +0.000 C 
BRANCH  11  12
ATOM     12  C17 UNL     1      13.671  46.476  59.409  0.00  0.00    +0.000 C 
ATOM     13  N2  UNL     1      12.991  45.947  58.631  0.00  0.00    +0.000 NA
ENDBRANCH  11  12
ENDBRANCH   5   6
BRANCH   1  14
ATOM     14  C4  UNL     1      13.489  50.603  59.479  0.00  0.00    +0.000 C 
ATOM     15  O1  UNL     1      12.710  50.149  60.317  0.00  0.00    +0.000 OA
BRANCH  14  16
ATOM     16  C3  UNL     1      14.034  52.021  59.559  0.00  0.00    +0.000 C 
BRANCH  16  18
ATOM     17  C1  UNL     1      16.238  52.728  60.597  0.00  0.00    +0.000 C 
ATOM     18  C2  UNL     1      14.794  52.317  60.849  0.00  0.00    +0.000 C 
ENDBRANCH  16  18
ENDBRANCH  14  16
ENDBRANCH   1  14
BRANCH   2  19
ATOM     19  C7  UNL     1      13.676  50.468  55.849  0.00  0.00    +0.000 C 
ATOM     20  C8  UNL     1      12.372  49.708  56.048  0.00  0.00    +0.000 C 
ENDBRANCH   2  19
TORSDOF 6
ENDMDL
