MODEL 1
REMARK VINA RESULT:    -8.510      0.000      0.000
REMARK INTER + INTRA:         -12.186
REMARK INTER:                 -10.500
REMARK INTRA:                  -1.686
REMARK UNBOUND:                -1.686
REMARK  Name = ligantes_geracao2\Derivado_025.pdb
REMARK  6 active torsions:
REMARK  status: ('A' for Active; 'I' for Inactive)
REMARK    1  A    between atoms: C1_1  and  C2_2
REMARK    2  A    between atoms: C2_2  and  C3_3
REMARK    3  A    between atoms: C2_2  and  C4_4
REMARK    4  A    between atoms: C4_4  and  C5_6
REMARK    5  A    between atoms: C9_11  and  C10_12
REMARK    6  A    between atoms: C14_17  and  C15_18
REMARK                            x       y       z     vdW  Elec       q    Type
REMARK                         _______ _______ _______ _____ _____    ______ ____
ROOT
ATOM      1  C5  UNL     1       2.878  66.730  67.186  0.00  0.00    +0.000 C 
ATOM      2  C6  UNL     1       2.888  66.575  68.707  0.00  0.00    +0.000 C 
ATOM      3  F1  UNL     1       2.115  65.493  69.013  0.00  0.00    +0.000 F 
ATOM      4  C7  UNL     1       4.323  66.258  69.102  0.00  0.00    +0.000 C 
ATOM      5  C8  UNL     1       4.881  65.553  67.874  0.00  0.00    +0.000 C 
ATOM      6  C9  UNL     1       4.312  66.397  66.725  0.00  0.00    +0.000 C 
ENDROOT
BRANCH   6   7
ATOM      7  C10 UNL     1       4.364  65.750  65.359  0.00  0.00    +0.000 C 
ATOM      8  C11 UNL     1       3.970  64.422  65.178  0.00  0.00    +0.000 C 
ATOM      9  N1  UNL     1       3.958  63.773  63.993  0.00  0.00    +0.000 NA
ATOM     10  C12 UNL     1       4.367  64.469  62.917  0.00  0.00    +0.000 C 
ATOM     11  C13 UNL     1       4.772  65.789  62.969  0.00  0.00    +0.000 C 
ATOM     12  C14 UNL     1       4.770  66.445  64.205  0.00  0.00    +0.000 C 
BRANCH  12  13
ATOM     13  C15 UNL     1       5.182  67.855  64.242  0.00  0.00    +0.000 C 
ATOM     14  C16 UNL     1       4.480  68.879  63.746  0.00  0.00    +0.000 C 
ATOM     15 CL1  UNL     1       2.961  68.762  62.962  0.00  0.00    +0.000 Cl
ENDBRANCH  12  13
ENDBRANCH   6   7
BRANCH   1  16
ATOM     16  C4  UNL     1       2.482  68.149  66.822  0.00  0.00    +0.000 C 
ATOM     17  O1  UNL     1       3.185  69.108  67.145  0.00  0.00    +0.000 OA
BRANCH  16  19
ATOM     18  C1  UNL     1       0.054  68.699  67.025  0.00  0.00    +0.000 C 
ATOM     19  C2  UNL     1       1.172  68.328  66.057  0.00  0.00    +0.000 C 
ATOM     20  C3  UNL     1       0.816  67.066  65.276  0.00  0.00    +0.000 C 
ENDBRANCH  16  19
ENDBRANCH   1  16
TORSDOF 4
ENDMDL
MODEL 2
REMARK VINA RESULT:    -8.359      2.779      5.039
REMARK INTER + INTRA:         -12.000
REMARK INTER:                 -11.265
REMARK INTRA:                  -0.735
REMARK UNBOUND:                -1.686
REMARK  Name = ligantes_geracao2\Derivado_025.pdb
REMARK  6 active torsions:
REMARK  status: ('A' for Active; 'I' for Inactive)
REMARK    1  A    between atoms: C1_1  and  C2_2
REMARK    2  A    between atoms: C2_2  and  C3_3
REMARK    3  A    between atoms: C2_2  and  C4_4
REMARK    4  A    between atoms: C4_4  and  C5_6
REMARK    5  A    between atoms: C9_11  and  C10_12
REMARK    6  A    between atoms: C14_17  and  C15_18
REMARK                            x       y       z     vdW  Elec       q    Type
REMARK                         _______ _______ _______ _____ _____    ______ ____
ROOT
ATOM      1  C5  UNL     1       3.830  66.867  63.886  0.00  0.00    +0.000 C 
ATOM      2  C6  UNL     1       3.650  68.040  62.922  0.00  0.00    +0.000 C 
ATOM      3  F1  UNL     1       2.379  68.511  63.084  0.00  0.00    +0.000 F 
ATOM      4  C7  UNL     1       4.617  69.125  63.374  0.00  0.00    +0.000 C 
ATOM      5  C8  UNL     1       4.751  68.880  64.869  0.00  0.00    +0.000 C 
ATOM      6  C9  UNL     1       4.843  67.351  64.944  0.00  0.00    +0.000 C 
ENDROOT
BRANCH   6   7
ATOM      7  C10 UNL     1       4.606  66.754  66.314  0.00  0.00    +0.000 C 
ATOM      8  C11 UNL     1       5.611  66.039  66.968  0.00  0.00    +0.000 C 
ATOM      9  N1  UNL     1       5.497  65.495  68.201  0.00  0.00    +0.000 NA
ATOM     10  C12 UNL     1       4.318  65.657  68.827  0.00  0.00    +0.000 C 
ATOM     11  C13 UNL     1       3.253  66.351  68.285  0.00  0.00    +0.000 C 
ATOM     12  C14 UNL     1       3.394  66.912  67.011  0.00  0.00    +0.000 C 
BRANCH  12  13
ATOM     13  C15 UNL     1       2.261  67.666  66.457  0.00  0.00    +0.000 C 
ATOM     14  C16 UNL     1       1.865  68.876  66.863  0.00  0.00    +0.000 C 
ATOM     15 CL1  UNL     1       2.589  69.797  68.113  0.00  0.00    +0.000 Cl
ENDBRANCH  12  13
ENDBRANCH   6   7
BRANCH   1  16
ATOM     16  C4  UNL     1       4.341  65.657  63.125  0.00  0.00    +0.000 C 
ATOM     17  O1  UNL     1       4.630  65.734  61.930  0.00  0.00    +0.000 OA
BRANCH  16  19
ATOM     18  C1  UNL     1       5.011  63.255  62.995  0.00  0.00    +0.000 C 
ATOM     19  C2  UNL     1       4.460  64.348  63.903  0.00  0.00    +0.000 C 
ATOM     20  C3  UNL     1       3.114  63.936  64.493  0.00  0.00    +0.000 C 
ENDBRANCH  16  19
ENDBRANCH   1  16
TORSDOF 4
ENDMDL
MODEL 3
REMARK VINA RESULT:    -7.678      3.113      4.558
REMARK INTER + INTRA:         -11.160
REMARK INTER:                 -10.642
REMARK INTRA:                  -0.518
REMARK UNBOUND:                -1.686
REMARK  Name = ligantes_geracao2\Derivado_025.pdb
REMARK  6 active torsions:
REMARK  status: ('A' for Active; 'I' for Inactive)
REMARK    1  A    between atoms: C1_1  and  C2_2
REMARK    2  A    between atoms: C2_2  and  C3_3
REMARK    3  A    between atoms: C2_2  and  C4_4
REMARK    4  A    between atoms: C4_4  and  C5_6
REMARK    5  A    between atoms: C9_11  and  C10_12
REMARK    6  A    between atoms: C14_17  and  C15_18
REMARK                            x       y       z     vdW  Elec       q    Type
REMARK                         _______ _______ _______ _____ _____    ______ ____
ROOT
ATOM      1  C5  UNL     1       2.918  64.644  68.785  0.00  0.00    +0.000 C 
ATOM      2  C6  UNL     1       3.735  63.391  69.102  0.00  0.00    +0.000 C 
ATOM      3  F1  UNL     1       3.985  62.756  67.921  0.00  0.00    +0.000 F 
ATOM      4  C7  UNL     1       5.063  63.872  69.671  0.00  0.00    +0.000 C 
ATOM      5  C8  UNL     1       5.257  65.232  69.017  0.00  0.00    +0.000 C 
ATOM      6  C9  UNL     1       3.848  65.836  69.093  0.00  0.00    +0.000 C 
ENDROOT
BRANCH   6   7
ATOM      7  C10 UNL     1       3.605  67.029  68.195  0.00  0.00    +0.000 C 
ATOM      8  C11 UNL     1       2.921  68.153  68.665  0.00  0.00    +0.000 C 
ATOM      9  N1  UNL     1       2.684  69.271  67.944  0.00  0.00    +0.000 NA
ATOM     10  C12 UNL     1       3.139  69.284  66.678  0.00  0.00    +0.000 C 
ATOM     11  C13 UNL     1       3.835  68.237  66.105  0.00  0.00    +0.000 C 
ATOM     12  C14 UNL     1       4.077  67.091  66.871  0.00  0.00    +0.000 C 
BRANCH  12  13
ATOM     13  C15 UNL     1       4.837  65.995  66.256  0.00  0.00    +0.000 C 
ATOM     14  C16 UNL     1       4.378  65.171  65.309  0.00  0.00    +0.000 C 
ATOM     15 CL1  UNL     1       2.811  65.218  64.619  0.00  0.00    +0.000 Cl
ENDBRANCH  12  13
ENDBRANCH   6   7
BRANCH   1  16
ATOM     16  C4  UNL     1       1.667  64.666  69.644  0.00  0.00    +0.000 C 
ATOM     17  O1  UNL     1       1.037  65.709  69.823  0.00  0.00    +0.000 OA
BRANCH  16  19
ATOM     18  C1  UNL     1      -0.174  62.990  69.841  0.00  0.00    +0.000 C 
ATOM     19  C2  UNL     1       1.241  63.345  70.282  0.00  0.00    +0.000 C 
ATOM     20  C3  UNL     1       1.332  63.416  71.804  0.00  0.00    +0.000 C 
ENDBRANCH  16  19
ENDBRANCH   1  16
TORSDOF 4
ENDMDL
MODEL 4
REMARK VINA RESULT:    -7.397      5.171      6.919
REMARK INTER + INTRA:         -10.814
REMARK INTER:                  -9.684
REMARK INTRA:                  -1.129
REMARK UNBOUND:                -1.686
REMARK  Name = ligantes_geracao2\Derivado_025.pdb
REMARK  6 active torsions:
REMARK  status: ('A' for Active; 'I' for Inactive)
REMARK    1  A    between atoms: C1_1  and  C2_2
REMARK    2  A    between atoms: C2_2  and  C3_3
REMARK    3  A    between atoms: C2_2  and  C4_4
REMARK    4  A    between atoms: C4_4  and  C5_6
REMARK    5  A    between atoms: C9_11  and  C10_12
REMARK    6  A    between atoms: C14_17  and  C15_18
REMARK                            x       y       z     vdW  Elec       q    Type
REMARK                         _______ _______ _______ _____ _____    ______ ____
ROOT
ATOM      1  C5  UNL     1       2.600  61.248  70.530  0.00  0.00    +0.000 C 
ATOM      2  C6  UNL     1       3.146  59.939  69.958  0.00  0.00    +0.000 C 
ATOM      3  F1  UNL     1       2.185  59.417  69.142  0.00  0.00    +0.000 F 
ATOM      4  C7  UNL     1       4.346  60.310  69.099  0.00  0.00    +0.000 C 
ATOM      5  C8  UNL     1       4.024  61.720  68.628  0.00  0.00    +0.000 C 
ATOM      6  C9  UNL     1       3.453  62.366  69.897  0.00  0.00    +0.000 C 
ENDROOT
BRANCH   6   7
ATOM      7  C10 UNL     1       2.686  63.652  69.681  0.00  0.00    +0.000 C 
ATOM      8  C11 UNL     1       1.293  63.682  69.784  0.00  0.00    +0.000 C 
ATOM      9  N1  UNL     1       0.530  64.787  69.635  0.00  0.00    +0.000 NA
ATOM     10  C12 UNL     1       1.175  65.935  69.357  0.00  0.00    +0.000 C 
ATOM     11  C13 UNL     1       2.548  66.032  69.239  0.00  0.00    +0.000 C 
ATOM     12  C14 UNL     1       3.320  64.877  69.405  0.00  0.00    +0.000 C 
BRANCH  12  13
ATOM     13  C15 UNL     1       4.780  64.999  69.299  0.00  0.00    +0.000 C 
ATOM     14  C16 UNL     1       5.448  65.365  68.200  0.00  0.00    +0.000 C 
ATOM     15 CL1  UNL     1       4.743  65.764  66.690  0.00  0.00    +0.000 Cl
ENDBRANCH  12  13
ENDBRANCH   6   7
BRANCH   1  16
ATOM     16  C4  UNL     1       2.719  61.230  72.043  0.00  0.00    +0.000 C 
ATOM     17  O1  UNL     1       3.815  61.106  72.592  0.00  0.00    +0.000 OA
BRANCH  16  19
ATOM     18  C1  UNL     1       0.241  60.928  71.982  0.00  0.00    +0.000 C 
ATOM     19  C2  UNL     1       1.424  61.357  72.842  0.00  0.00    +0.000 C 
ATOM     20  C3  UNL     1       1.233  62.783  73.354  0.00  0.00    +0.000 C 
ENDBRANCH  16  19
ENDBRANCH   1  16
TORSDOF 4
ENDMDL
MODEL 5
REMARK VINA RESULT:    -7.033      5.572      7.685
REMARK INTER + INTRA:         -10.364
REMARK INTER:                  -9.080
REMARK INTRA:                  -1.284
REMARK UNBOUND:                -1.686
REMARK  Name = ligantes_geracao2\Derivado_025.pdb
REMARK  6 active torsions:
REMARK  status: ('A' for Active; 'I' for Inactive)
REMARK    1  A    between atoms: C1_1  and  C2_2
REMARK    2  A    between atoms: C2_2  and  C3_3
REMARK    3  A    between atoms: C2_2  and  C4_4
REMARK    4  A    between atoms: C4_4  and  C5_6
REMARK    5  A    between atoms: C9_11  and  C10_12
REMARK    6  A    between atoms: C14_17  and  C15_18
REMARK                            x       y       z     vdW  Elec       q    Type
REMARK                         _______ _______ _______ _____ _____    ______ ____
ROOT
ATOM      1  C5  UNL     1       3.686  62.056  69.926  0.00  0.00    +0.000 C 
ATOM      2  C6  UNL     1       4.586  60.938  69.396  0.00  0.00    +0.000 C 
ATOM      3  F1  UNL     1       5.578  60.743  70.313  0.00  0.00    +0.000 F 
ATOM      4  C7  UNL     1       3.731  59.680  69.348  0.00  0.00    +0.000 C 
ATOM      5  C8  UNL     1       2.709  59.903  70.453  0.00  0.00    +0.000 C 
ATOM      6  C9  UNL     1       2.342  61.380  70.267  0.00  0.00    +0.000 C 
ENDROOT
BRANCH   6   7
ATOM      7  C10 UNL     1       1.631  62.024  71.437  0.00  0.00    +0.000 C 
ATOM      8  C11 UNL     1       2.093  61.845  72.743  0.00  0.00    +0.000 C 
ATOM      9  N1  UNL     1       1.538  62.402  73.843  0.00  0.00    +0.000 NA
ATOM     10  C12 UNL     1       0.456  63.177  73.649  0.00  0.00    +0.000 C 
ATOM     11  C13 UNL     1      -0.087  63.435  72.405  0.00  0.00    +0.000 C 
ATOM     12  C14 UNL     1       0.507  62.855  71.278  0.00  0.00    +0.000 C 
BRANCH  12  13
ATOM     13  C15 UNL     1      -0.068  63.155  69.960  0.00  0.00    +0.000 C 
ATOM     14  C16 UNL     1      -0.192  64.376  69.431  0.00  0.00    +0.000 C 
ATOM     15 CL1  UNL     1       0.287  65.842  70.177  0.00  0.00    +0.000 Cl
ENDBRANCH  12  13
ENDBRANCH   6   7
BRANCH   1  16
ATOM     16  C4  UNL     1       3.527  63.128  68.863  0.00  0.00    +0.000 C 
ATOM     17  O1  UNL     1       3.188  62.839  67.715  0.00  0.00    +0.000 OA
BRANCH  16  19
ATOM     18  C1  UNL     1       3.156  65.535  68.311  0.00  0.00    +0.000 C 
ATOM     19  C2  UNL     1       3.824  64.567  69.280  0.00  0.00    +0.000 C 
ATOM     20  C3  UNL     1       5.327  64.820  69.348  0.00  0.00    +0.000 C 
ENDBRANCH  16  19
ENDBRANCH   1  16
TORSDOF 4
ENDMDL
MODEL 6
REMARK VINA RESULT:    -6.668      6.728      8.465
REMARK INTER + INTRA:          -9.914
REMARK INTER:                  -8.470
REMARK INTRA:                  -1.444
REMARK UNBOUND:                -1.686
REMARK  Name = ligantes_geracao2\Derivado_025.pdb
REMARK  6 active torsions:
REMARK  status: ('A' for Active; 'I' for Inactive)
REMARK    1  A    between atoms: C1_1  and  C2_2
REMARK    2  A    between atoms: C2_2  and  C3_3
REMARK    3  A    between atoms: C2_2  and  C4_4
REMARK    4  A    between atoms: C4_4  and  C5_6
REMARK    5  A    between atoms: C9_11  and  C10_12
REMARK    6  A    between atoms: C14_17  and  C15_18
REMARK                            x       y       z     vdW  Elec       q    Type
REMARK                         _______ _______ _______ _____ _____    ______ ____
ROOT
ATOM      1  C5  UNL     1       1.325  61.934  72.465  0.00  0.00    +0.000 C 
ATOM      2  C6  UNL     1       0.035  61.824  73.278  0.00  0.00    +0.000 C 
ATOM      3  F1  UNL     1      -0.167  63.026  73.892  0.00  0.00    +0.000 F 
ATOM      4  C7  UNL     1      -1.091  61.609  72.276  0.00  0.00    +0.000 C 
ATOM      5  C8  UNL     1      -0.583  62.300  71.019  0.00  0.00    +0.000 C 
ATOM      6  C9  UNL     1       0.892  61.878  70.986  0.00  0.00    +0.000 C 
ENDROOT
BRANCH   6   7
ATOM      7  C10 UNL     1       1.779  62.695  70.073  0.00  0.00    +0.000 C 
ATOM      8  C11 UNL     1       1.738  64.091  70.092  0.00  0.00    +0.000 C 
ATOM      9  N1  UNL     1       2.511  64.898  69.333  0.00  0.00    +0.000 NA
ATOM     10  C12 UNL     1       3.375  64.297  68.495  0.00  0.00    +0.000 C 
ATOM     11  C13 UNL     1       3.512  62.926  68.393  0.00  0.00    +0.000 C 
ATOM     12  C14 UNL     1       2.707  62.108  69.193  0.00  0.00    +0.000 C 
BRANCH  12  13
ATOM     13  C15 UNL     1       2.880  60.653  69.090  0.00  0.00    +0.000 C 
ATOM     14  C16 UNL     1       3.946  59.968  69.516  0.00  0.00    +0.000 C 
ATOM     15 CL1  UNL     1       5.331  60.642  70.266  0.00  0.00    +0.000 Cl
ENDBRANCH  12  13
ENDBRANCH   6   7
BRANCH   1  16
ATOM     16  C4  UNL     1       2.254  60.790  72.827  0.00  0.00    +0.000 C 
ATOM     17  O1  UNL     1       3.476  60.945  72.847  0.00  0.00    +0.000 OA
BRANCH  16  19
ATOM     18  C1  UNL     1       2.239  58.848  74.398  0.00  0.00    +0.000 C 
ATOM     19  C2  UNL     1       1.604  59.444  73.147  0.00  0.00    +0.000 C 
ATOM     20  C3  UNL     1       1.725  58.484  71.967  0.00  0.00    +0.000 C 
ENDBRANCH  16  19
ENDBRANCH   1  16
TORSDOF 4
ENDMDL
MODEL 7
REMARK VINA RESULT:    -6.585      6.855      8.947
REMARK INTER + INTRA:          -9.811
REMARK INTER:                  -8.402
REMARK INTRA:                  -1.409
REMARK UNBOUND:                -1.686
REMARK  Name = ligantes_geracao2\Derivado_025.pdb
REMARK  6 active torsions:
REMARK  status: ('A' for Active; 'I' for Inactive)
REMARK    1  A    between atoms: C1_1  and  C2_2
REMARK    2  A    between atoms: C2_2  and  C3_3
REMARK    3  A    between atoms: C2_2  and  C4_4
REMARK    4  A    between atoms: C4_4  and  C5_6
REMARK    5  A    between atoms: C9_11  and  C10_12
REMARK    6  A    between atoms: C14_17  and  C15_18
REMARK                            x       y       z     vdW  Elec       q    Type
REMARK                         _______ _______ _______ _____ _____    ______ ____
ROOT
ATOM      1  C5  UNL     1       2.711  60.427  71.023  0.00  0.00    +0.000 C 
ATOM      2  C6  UNL     1       3.155  58.972  70.866  0.00  0.00    +0.000 C 
ATOM      3  F1  UNL     1       4.112  58.731  71.808  0.00  0.00    +0.000 F 
ATOM      4  C7  UNL     1       1.942  58.112  71.192  0.00  0.00    +0.000 C 
ATOM      5  C8  UNL     1       1.151  58.970  72.168  0.00  0.00    +0.000 C 
ATOM      6  C9  UNL     1       1.259  60.366  71.540  0.00  0.00    +0.000 C 
ENDROOT
BRANCH   6   7
ATOM      7  C10 UNL     1       0.902  61.517  72.454  0.00  0.00    +0.000 C 
ATOM      8  C11 UNL     1       1.330  61.537  73.783  0.00  0.00    +0.000 C 
ATOM      9  N1  UNL     1       1.082  62.534  74.661  0.00  0.00    +0.000 NA
ATOM     10  C12 UNL     1       0.359  63.575  74.207  0.00  0.00    +0.000 C 
ATOM     11  C13 UNL     1      -0.112  63.671  72.912  0.00  0.00    +0.000 C 
ATOM     12  C14 UNL     1       0.163  62.631  72.016  0.00  0.00    +0.000 C 
BRANCH  12  13
ATOM     13  C15 UNL     1      -0.326  62.758  70.637  0.00  0.00    +0.000 C 
ATOM     14  C16 UNL     1       0.042  63.707  69.771  0.00  0.00    +0.000 C 
ATOM     15 CL1  UNL     1       1.151  64.973  70.087  0.00  0.00    +0.000 Cl
ENDBRANCH  12  13
ENDBRANCH   6   7
BRANCH   1  16
ATOM     16  C4  UNL     1       2.807  61.136  69.685  0.00  0.00    +0.000 C 
ATOM     17  O1  UNL     1       2.316  60.643  68.668  0.00  0.00    +0.000 OA
BRANCH  16  19
ATOM     18  C1  UNL     1       3.601  63.006  68.232  0.00  0.00    +0.000 C 
ATOM     19  C2  UNL     1       3.550  62.471  69.659  0.00  0.00    +0.000 C 
ATOM     20  C3  UNL     1       4.956  62.327  70.235  0.00  0.00    +0.000 C 
ENDBRANCH  16  19
ENDBRANCH   1  16
TORSDOF 4
ENDMDL
MODEL 8
REMARK VINA RESULT:    -6.364      6.865      8.948
REMARK INTER + INTRA:          -9.538
REMARK INTER:                  -8.817
REMARK INTRA:                  -0.721
REMARK UNBOUND:                -1.686
REMARK  Name = ligantes_geracao2\Derivado_025.pdb
REMARK  6 active torsions:
REMARK  status: ('A' for Active; 'I' for Inactive)
REMARK    1  A    between atoms: C1_1  and  C2_2
REMARK    2  A    between atoms: C2_2  and  C3_3
REMARK    3  A    between atoms: C2_2  and  C4_4
REMARK    4  A    between atoms: C4_4  and  C5_6
REMARK    5  A    between atoms: C9_11  and  C10_12
REMARK    6  A    between atoms: C14_17  and  C15_18
REMARK                            x       y       z     vdW  Elec       q    Type
REMARK                         _______ _______ _______ _____ _____    ______ ____
ROOT
ATOM      1  C5  UNL     1       3.395  61.917  70.414  0.00  0.00    +0.000 C 
ATOM      2  C6  UNL     1       4.438  61.119  69.630  0.00  0.00    +0.000 C 
ATOM      3  F1  UNL     1       5.347  60.639  70.528  0.00  0.00    +0.000 F 
ATOM      4  C7  UNL     1       3.706  59.934  69.017  0.00  0.00    +0.000 C 
ATOM      5  C8  UNL     1       2.563  59.682  69.989  0.00  0.00    +0.000 C 
ATOM      6  C9  UNL     1       2.088  61.104  70.313  0.00  0.00    +0.000 C 
ENDROOT
BRANCH   6   7
ATOM      7  C10 UNL     1       1.210  61.232  71.538  0.00  0.00    +0.000 C 
ATOM      8  C11 UNL     1      -0.150  61.527  71.418  0.00  0.00    +0.000 C 
ATOM      9  N1  UNL     1      -1.013  61.632  72.452  0.00  0.00    +0.000 NA
ATOM     10  C12 UNL     1      -0.507  61.445  73.685  0.00  0.00    +0.000 C 
ATOM     11  C13 UNL     1       0.819  61.140  73.929  0.00  0.00    +0.000 C 
ATOM     12  C14 UNL     1       1.694  61.028  72.843  0.00  0.00    +0.000 C 
BRANCH  12  13
ATOM     13  C15 UNL     1       3.096  60.682  73.116  0.00  0.00    +0.000 C 
ATOM     14  C16 UNL     1       3.552  59.453  73.377  0.00  0.00    +0.000 C 
ATOM     15 CL1  UNL     1       2.601  58.030  73.452  0.00  0.00    +0.000 Cl
ENDBRANCH  12  13
ENDBRANCH   6   7
BRANCH   1  16
ATOM     16  C4  UNL     1       3.251  63.300  69.806  0.00  0.00    +0.000 C 
ATOM     17  O1  UNL     1       2.343  64.056  70.156  0.00  0.00    +0.000 OA
BRANCH  16  19
ATOM     18  C1  UNL     1       5.036  64.935  69.191  0.00  0.00    +0.000 C 
ATOM     19  C2  UNL     1       4.269  63.698  68.739  0.00  0.00    +0.000 C 
ATOM     20  C3  UNL     1       3.586  63.944  67.396  0.00  0.00    +0.000 C 
ENDBRANCH  16  19
ENDBRANCH   1  16
TORSDOF 4
ENDMDL
MODEL 9
REMARK VINA RESULT:    -6.206     19.747     21.612
REMARK INTER + INTRA:          -9.343
REMARK INTER:                  -7.873
REMARK INTRA:                  -1.471
REMARK UNBOUND:                -1.686
REMARK  Name = ligantes_geracao2\Derivado_025.pdb
REMARK  6 active torsions:
REMARK  status: ('A' for Active; 'I' for Inactive)
REMARK    1  A    between atoms: C1_1  and  C2_2
REMARK    2  A    between atoms: C2_2  and  C3_3
REMARK    3  A    between atoms: C2_2  and  C4_4
REMARK    4  A    between atoms: C4_4  and  C5_6
REMARK    5  A    between atoms: C9_11  and  C10_12
REMARK    6  A    between atoms: C14_17  and  C15_18
REMARK                            x       y       z     vdW  Elec       q    Type
REMARK                         _______ _______ _______ _____ _____    ______ ____
ROOT
ATOM      1  C5  UNL     1      14.922  48.058  61.483  0.00  0.00    +0.000 C 
ATOM      2  C6  UNL     1      15.296  47.992  62.964  0.00  0.00    +0.000 C 
ATOM      3  F1  UNL     1      16.438  47.251  63.065  0.00  0.00    +0.000 F 
ATOM      4  C7  UNL     1      15.617  49.417  63.394  0.00  0.00    +0.000 C 
ATOM      5  C8  UNL     1      16.115  50.070  62.113  0.00  0.00    +0.000 C 
ATOM      6  C9  UNL     1      15.135  49.528  61.065  0.00  0.00    +0.000 C 
ENDROOT
BRANCH   6   7
ATOM      7  C10 UNL     1      15.574  49.681  59.626  0.00  0.00    +0.000 C 
ATOM      8  C11 UNL     1      16.380  48.718  59.015  0.00  0.00    +0.000 C 
ATOM      9  N1  UNL     1      16.797  48.760  57.730  0.00  0.00    +0.000 NA
ATOM     10  C12 UNL     1      16.403  49.819  57.000  0.00  0.00    +0.000 C 
ATOM     11  C13 UNL     1      15.600  50.831  57.491  0.00  0.00    +0.000 C 
ATOM     12  C14 UNL     1      15.173  50.764  58.822  0.00  0.00    +0.000 C 
BRANCH  12  13
ATOM     13  C15 UNL     1      14.301  51.835  59.324  0.00  0.00    +0.000 C 
ATOM     14  C16 UNL     1      14.704  52.890  60.038  0.00  0.00    +0.000 C 
ATOM     15 CL1  UNL     1      16.316  53.212  60.521  0.00  0.00    +0.000 Cl
ENDBRANCH  12  13
ENDBRANCH   6   7
BRANCH   1  16
ATOM     16  C4  UNL     1      13.480  47.620  61.302  0.00  0.00    +0.000 C 
ATOM     17  O1  UNL     1      13.100  46.512  61.682  0.00  0.00    +0.000 OA
BRANCH  16  19
ATOM     18  C1  UNL     1      11.288  48.806  61.471  0.00  0.00    +0.000 C 
ATOM     19  C2  UNL     1      12.536  48.608  60.618  0.00  0.00    +0.000 C 
ATOM     20  C3  UNL     1      12.165  48.130  59.217  0.00  0.00    +0.000 C 
ENDBRANCH  16  19
ENDBRANCH   1  16
TORSDOF 4
ENDMDL
