MODEL 1
REMARK VINA RESULT:    -5.997      0.000      0.000
REMARK INTER + INTRA:          -9.036
REMARK INTER:                  -7.750
REMARK INTRA:                  -1.285
REMARK UNBOUND:                -1.285
REMARK  Name = ligantes_geracao2\Derivado_017.pdb
REMARK  7 active torsions:
REMARK  status: ('A' for Active; 'I' for Inactive)
REMARK    1  A    between atoms: C1_1  and  C2_2
REMARK    2  A    between atoms: C2_2  and  C3_3
REMARK    3  A    between atoms: C3_3  and  C4_4
REMARK    4  A    between atoms: C4_4  and  C5_6
REMARK    5  A    between atoms: C6_7  and  C7_8
REMARK    6  A    between atoms: C10_11  and  C11_12
REMARK    7  A    between atoms: C15_17  and  C16_18
REMARK                            x       y       z     vdW  Elec       q    Type
REMARK                         _______ _______ _______ _____ _____    ______ ____
ROOT
ATOM      1  C5  UNL     1      21.934  19.359  19.944  0.00  0.00    +0.000 C 
ATOM      2  C6  UNL     1      21.886  18.190  20.959  0.00  0.00    +0.000 C 
ATOM      3  C7  UNL     1      23.263  17.827  21.501  0.00  0.00    +0.000 C 
ATOM      4  C8  UNL     1      20.934  18.645  22.069  0.00  0.00    +0.000 C 
ATOM      5  C9  UNL     1      20.020  19.648  21.382  0.00  0.00    +0.000 C 
ATOM      6  C10 UNL     1      20.999  20.455  20.513  0.00  0.00    +0.000 C 
ENDROOT
BRANCH   6   7
ATOM      7  C11 UNL     1      20.417  21.460  19.538  0.00  0.00    +0.000 C 
ATOM      8  C12 UNL     1      19.098  21.366  19.097  0.00  0.00    +0.000 C 
ATOM      9  N1  UNL     1      18.492  22.235  18.252  0.00  0.00    +0.000 NA
ATOM     10  C13 UNL     1      19.224  23.268  17.803  0.00  0.00    +0.000 C 
ATOM     11  C14 UNL     1      20.541  23.469  18.157  0.00  0.00    +0.000 C 
ATOM     12  C15 UNL     1      21.145  22.554  19.029  0.00  0.00    +0.000 C 
BRANCH  12  13
ATOM     13  C16 UNL     1      22.558  22.809  19.408  0.00  0.00    +0.000 C 
ATOM     14  N2  UNL     1      22.758  23.678  20.444  0.00  0.00    +0.000 N 
ATOM     15  O2  UNL     1      23.502  22.300  18.821  0.00  0.00    +0.000 OA
ATOM     16  H   UNL     1      21.986  24.079  20.906  0.00  0.00    +0.000 HD
ATOM     17  H   UNL     1      23.673  23.904  20.728  0.00  0.00    +0.000 HD
ENDBRANCH  12  13
ENDBRANCH   6   7
BRANCH   1  18
ATOM     18  C4  UNL     1      21.508  18.836  18.573  0.00  0.00    +0.000 C 
ATOM     19  O1  UNL     1      20.456  18.217  18.413  0.00  0.00    +0.000 OA
BRANCH  18  20
ATOM     20  C3  UNL     1      22.492  19.066  17.437  0.00  0.00    +0.000 C 
BRANCH  20  22
ATOM     21  C1  UNL     1      24.476  17.605  17.949  0.00  0.00    +0.000 C 
ATOM     22  C2  UNL     1      23.943  19.027  17.905  0.00  0.00    +0.000 C 
ENDBRANCH  20  22
ENDBRANCH  18  20
ENDBRANCH   1  18
TORSDOF 5
ENDMDL
MODEL 2
REMARK VINA RESULT:    -5.960     31.550     33.815
REMARK INTER + INTRA:          -8.987
REMARK INTER:                  -7.531
REMARK INTRA:                  -1.456
REMARK UNBOUND:                -1.285
REMARK  Name = ligantes_geracao2\Derivado_017.pdb
REMARK  7 active torsions:
REMARK  status: ('A' for Active; 'I' for Inactive)
REMARK    1  A    between atoms: C1_1  and  C2_2
REMARK    2  A    between atoms: C2_2  and  C3_3
REMARK    3  A    between atoms: C3_3  and  C4_4
REMARK    4  A    between atoms: C4_4  and  C5_6
REMARK    5  A    between atoms: C6_7  and  C7_8
REMARK    6  A    between atoms: C10_11  and  C11_12
REMARK    7  A    between atoms: C15_17  and  C16_18
REMARK                            x       y       z     vdW  Elec       q    Type
REMARK                         _______ _______ _______ _____ _____    ______ ____
ROOT
ATOM      1  C5  UNL     1      17.953  -9.577   1.417  0.00  0.00    +0.000 C 
ATOM      2  C6  UNL     1      17.510 -10.970   1.930  0.00  0.00    +0.000 C 
ATOM      3  C7  UNL     1      18.621 -12.009   1.839  0.00  0.00    +0.000 C 
ATOM      4  C8  UNL     1      17.046 -10.751   3.373  0.00  0.00    +0.000 C 
ATOM      5  C9  UNL     1      16.618  -9.291   3.404  0.00  0.00    +0.000 C 
ATOM      6  C10 UNL     1      17.726  -8.597   2.595  0.00  0.00    +0.000 C 
ENDROOT
BRANCH   6   7
ATOM      7  C11 UNL     1      17.550  -7.128   2.266  0.00  0.00    +0.000 C 
ATOM      8  C12 UNL     1      16.283  -6.552   2.172  0.00  0.00    +0.000 C 
ATOM      9  N1  UNL     1      16.037  -5.245   1.911  0.00  0.00    +0.000 NA
ATOM     10  C13 UNL     1      17.099  -4.444   1.726  0.00  0.00    +0.000 C 
ATOM     11  C14 UNL     1      18.401  -4.892   1.784  0.00  0.00    +0.000 C 
ATOM     12  C15 UNL     1      18.628  -6.248   2.052  0.00  0.00    +0.000 C 
BRANCH  12  13
ATOM     13  C16 UNL     1      20.043  -6.697   2.129  0.00  0.00    +0.000 C 
ATOM     14  N2  UNL     1      20.652  -6.976   0.937  0.00  0.00    +0.000 N 
ATOM     15  O2  UNL     1      20.633  -6.841   3.188  0.00  0.00    +0.000 OA
ATOM     16  H   UNL     1      20.161  -6.855   0.092  0.00  0.00    +0.000 HD
ATOM     17  H   UNL     1      21.582  -7.298   0.924  0.00  0.00    +0.000 HD
ENDBRANCH  12  13
ENDBRANCH   6   7
BRANCH   1  18
ATOM     18  C4  UNL     1      17.146  -9.234   0.166  0.00  0.00    +0.000 C 
ATOM     19  O1  UNL     1      15.950  -9.512   0.070  0.00  0.00    +0.000 OA
BRANCH  18  20
ATOM     20  C3  UNL     1      17.922  -8.595  -0.974  0.00  0.00    +0.000 C 
BRANCH  20  22
ATOM     21  C1  UNL     1      18.220  -6.204  -1.702  0.00  0.00    +0.000 C 
ATOM     22  C2  UNL     1      17.235  -7.346  -1.520  0.00  0.00    +0.000 C 
ENDBRANCH  20  22
ENDBRANCH  18  20
ENDBRANCH   1  18
TORSDOF 5
ENDMDL
MODEL 3
REMARK VINA RESULT:    -5.904     27.408     29.257
REMARK INTER + INTRA:          -8.915
REMARK INTER:                  -7.477
REMARK INTRA:                  -1.438
REMARK UNBOUND:                -1.285
REMARK  Name = ligantes_geracao2\Derivado_017.pdb
REMARK  7 active torsions:
REMARK  status: ('A' for Active; 'I' for Inactive)
REMARK    1  A    between atoms: C1_1  and  C2_2
REMARK    2  A    between atoms: C2_2  and  C3_3
REMARK    3  A    between atoms: C3_3  and  C4_4
REMARK    4  A    between atoms: C4_4  and  C5_6
REMARK    5  A    between atoms: C6_7  and  C7_8
REMARK    6  A    between atoms: C10_11  and  C11_12
REMARK    7  A    between atoms: C15_17  and  C16_18
REMARK                            x       y       z     vdW  Elec       q    Type
REMARK                         _______ _______ _______ _____ _____    ______ ____
ROOT
ATOM      1  C5  UNL     1       0.400   2.090  19.675  0.00  0.00    +0.000 C 
ATOM      2  C6  UNL     1       0.527   3.419  18.890  0.00  0.00    +0.000 C 
ATOM      3  C7  UNL     1       0.367   4.644  19.781  0.00  0.00    +0.000 C 
ATOM      4  C8  UNL     1       1.903   3.373  18.218  0.00  0.00    +0.000 C 
ATOM      5  C9  UNL     1       2.194   1.886  18.076  0.00  0.00    +0.000 C 
ATOM      6  C10 UNL     1       1.722   1.320  19.425  0.00  0.00    +0.000 C 
ENDROOT
BRANCH   6   7
ATOM      7  C11 UNL     1       1.702  -0.186  19.594  0.00  0.00    +0.000 C 
ATOM      8  C12 UNL     1       1.522  -1.037  18.504  0.00  0.00    +0.000 C 
ATOM      9  N1  UNL     1       1.520  -2.391  18.561  0.00  0.00    +0.000 NA
ATOM     10  C13 UNL     1       1.704  -2.956  19.766  0.00  0.00    +0.000 C 
ATOM     11  C14 UNL     1       1.884  -2.227  20.921  0.00  0.00    +0.000 C 
ATOM     12  C15 UNL     1       1.878  -0.829  20.835  0.00  0.00    +0.000 C 
BRANCH  12  13
ATOM     13  C16 UNL     1       2.095  -0.070  22.094  0.00  0.00    +0.000 C 
ATOM     14  N2  UNL     1       0.993   0.119  22.882  0.00  0.00    +0.000 N 
ATOM     15  O2  UNL     1       3.182   0.389  22.409  0.00  0.00    +0.000 OA
ATOM     16  H   UNL     1       0.125  -0.258  22.611  0.00  0.00    +0.000 HD
ATOM     17  H   UNL     1       1.069   0.632  23.718  0.00  0.00    +0.000 HD
ENDBRANCH  12  13
ENDBRANCH   6   7
BRANCH   1  18
ATOM     18  C4  UNL     1      -0.845   1.349  19.191  0.00  0.00    +0.000 C 
ATOM     19  O1  UNL     1      -1.211   1.394  18.017  0.00  0.00    +0.000 OA
BRANCH  18  20
ATOM     20  C3  UNL     1      -1.641   0.615  20.258  0.00  0.00    +0.000 C 
BRANCH  20  22
ATOM     21  C1  UNL     1      -1.786  -1.790  20.985  0.00  0.00    +0.000 C 
ATOM     22  C2  UNL     1      -1.997  -0.810  19.843  0.00  0.00    +0.000 C 
ENDBRANCH  20  22
ENDBRANCH  18  20
ENDBRANCH   1  18
TORSDOF 5
ENDMDL
MODEL 4
REMARK VINA RESULT:    -5.743      2.641      4.955
REMARK INTER + INTRA:          -8.707
REMARK INTER:                  -7.854
REMARK INTRA:                  -0.853
REMARK UNBOUND:                -1.285
REMARK  Name = ligantes_geracao2\Derivado_017.pdb
REMARK  7 active torsions:
REMARK  status: ('A' for Active; 'I' for Inactive)
REMARK    1  A    between atoms: C1_1  and  C2_2
REMARK    2  A    between atoms: C2_2  and  C3_3
REMARK    3  A    between atoms: C3_3  and  C4_4
REMARK    4  A    between atoms: C4_4  and  C5_6
REMARK    5  A    between atoms: C6_7  and  C7_8
REMARK    6  A    between atoms: C10_11  and  C11_12
REMARK    7  A    between atoms: C15_17  and  C16_18
REMARK                            x       y       z     vdW  Elec       q    Type
REMARK                         _______ _______ _______ _____ _____    ______ ____
ROOT
ATOM      1  C5  UNL     1      21.477  18.851  19.356  0.00  0.00    +0.000 C 
ATOM      2  C6  UNL     1      22.774  18.623  20.171  0.00  0.00    +0.000 C 
ATOM      3  C7  UNL     1      22.569  17.680  21.350  0.00  0.00    +0.000 C 
ATOM      4  C8  UNL     1      23.800  18.078  19.173  0.00  0.00    +0.000 C 
ATOM      5  C9  UNL     1      23.329  18.618  17.830  0.00  0.00    +0.000 C 
ATOM      6  C10 UNL     1      21.806  18.423  17.904  0.00  0.00    +0.000 C 
ENDROOT
BRANCH   6   7
ATOM      7  C11 UNL     1      20.962  19.009  16.789  0.00  0.00    +0.000 C 
ATOM      8  C12 UNL     1      21.272  20.241  16.213  0.00  0.00    +0.000 C 
ATOM      9  N1  UNL     1      20.590  20.822  15.196  0.00  0.00    +0.000 NA
ATOM     10  C13 UNL     1      19.529  20.157  14.708  0.00  0.00    +0.000 C 
ATOM     11  C14 UNL     1      19.114  18.937  15.196  0.00  0.00    +0.000 C 
ATOM     12  C15 UNL     1      19.834  18.360  16.250  0.00  0.00    +0.000 C 
BRANCH  12  13
ATOM     13  C16 UNL     1      19.374  17.035  16.741  0.00  0.00    +0.000 C 
ATOM     14  N2  UNL     1      19.163  16.078  15.787  0.00  0.00    +0.000 N 
ATOM     15  O2  UNL     1      19.167  16.804  17.922  0.00  0.00    +0.000 OA
ATOM     16  H   UNL     1      19.335  16.282  14.839  0.00  0.00    +0.000 HD
ATOM     17  H   UNL     1      18.838  15.187  16.047  0.00  0.00    +0.000 HD
ENDBRANCH  12  13
ENDBRANCH   6   7
BRANCH   1  18
ATOM     18  C4  UNL     1      21.064  20.316  19.489  0.00  0.00    +0.000 C 
ATOM     19  O1  UNL     1      21.889  21.228  19.446  0.00  0.00    +0.000 OA
BRANCH  18  20
ATOM     20  C3  UNL     1      19.588  20.572  19.748  0.00  0.00    +0.000 C 
BRANCH  20  22
ATOM     21  C1  UNL     1      18.385  21.906  17.984  0.00  0.00    +0.000 C 
ATOM     22  C2  UNL     1      19.149  21.962  19.297  0.00  0.00    +0.000 C 
ENDBRANCH  20  22
ENDBRANCH  18  20
ENDBRANCH   1  18
TORSDOF 5
ENDMDL
MODEL 5
REMARK VINA RESULT:    -5.676      2.242      4.566
REMARK INTER + INTRA:          -8.620
REMARK INTER:                  -7.852
REMARK INTRA:                  -0.768
REMARK UNBOUND:                -1.285
REMARK  Name = ligantes_geracao2\Derivado_017.pdb
REMARK  7 active torsions:
REMARK  status: ('A' for Active; 'I' for Inactive)
REMARK    1  A    between atoms: C1_1  and  C2_2
REMARK    2  A    between atoms: C2_2  and  C3_3
REMARK    3  A    between atoms: C3_3  and  C4_4
REMARK    4  A    between atoms: C4_4  and  C5_6
REMARK    5  A    between atoms: C6_7  and  C7_8
REMARK    6  A    between atoms: C10_11  and  C11_12
REMARK    7  A    between atoms: C15_17  and  C16_18
REMARK                            x       y       z     vdW  Elec       q    Type
REMARK                         _______ _______ _______ _____ _____    ______ ____
ROOT
ATOM      1  C5  UNL     1      20.668  18.891  20.307  0.00  0.00    +0.000 C 
ATOM      2  C6  UNL     1      20.776  18.283  21.728  0.00  0.00    +0.000 C 
ATOM      3  C7  UNL     1      19.562  17.440  22.099  0.00  0.00    +0.000 C 
ATOM      4  C8  UNL     1      22.067  17.460  21.729  0.00  0.00    +0.000 C 
ATOM      5  C9  UNL     1      22.926  18.122  20.661  0.00  0.00    +0.000 C 
ATOM      6  C10 UNL     1      21.914  18.390  19.534  0.00  0.00    +0.000 C 
ENDROOT
BRANCH   6   7
ATOM      7  C11 UNL     1      22.378  19.205  18.344  0.00  0.00    +0.000 C 
ATOM      8  C12 UNL     1      23.605  19.869  18.351  0.00  0.00    +0.000 C 
ATOM      9  N1  UNL     1      24.108  20.593  17.322  0.00  0.00    +0.000 NA
ATOM     10  C13 UNL     1      23.363  20.678  16.208  0.00  0.00    +0.000 C 
ATOM     11  C14 UNL     1      22.130  20.076  16.077  0.00  0.00    +0.000 C 
ATOM     12  C15 UNL     1      21.631  19.337  17.157  0.00  0.00    +0.000 C 
BRANCH  12  13
ATOM     13  C16 UNL     1      20.309  18.682  16.978  0.00  0.00    +0.000 C 
ATOM     14  N2  UNL     1      20.310  17.315  16.967  0.00  0.00    +0.000 N 
ATOM     15  O2  UNL     1      19.275  19.314  16.822  0.00  0.00    +0.000 OA
ATOM     16  H   UNL     1      21.153  16.822  17.094  0.00  0.00    +0.000 HD
ATOM     17  H   UNL     1      19.468  16.824  16.831  0.00  0.00    +0.000 HD
ENDBRANCH  12  13
ENDBRANCH   6   7
BRANCH   1  18
ATOM     18  C4  UNL     1      20.587  20.411  20.428  0.00  0.00    +0.000 C 
ATOM     19  O1  UNL     1      21.512  21.074  20.898  0.00  0.00    +0.000 OA
BRANCH  18  20
ATOM     20  C3  UNL     1      19.274  21.046  20.000  0.00  0.00    +0.000 C 
BRANCH  20  22
ATOM     21  C1  UNL     1      18.289  22.261  18.028  0.00  0.00    +0.000 C 
ATOM     22  C2  UNL     1      19.470  22.162  18.978  0.00  0.00    +0.000 C 
ENDBRANCH  20  22
ENDBRANCH  18  20
ENDBRANCH   1  18
TORSDOF 5
ENDMDL
MODEL 6
REMARK VINA RESULT:    -5.590     30.750     33.263
REMARK INTER + INTRA:          -8.509
REMARK INTER:                  -7.539
REMARK INTRA:                  -0.971
REMARK UNBOUND:                -1.285
REMARK  Name = ligantes_geracao2\Derivado_017.pdb
REMARK  7 active torsions:
REMARK  status: ('A' for Active; 'I' for Inactive)
REMARK    1  A    between atoms: C1_1  and  C2_2
REMARK    2  A    between atoms: C2_2  and  C3_3
REMARK    3  A    between atoms: C3_3  and  C4_4
REMARK    4  A    between atoms: C4_4  and  C5_6
REMARK    5  A    between atoms: C6_7  and  C7_8
REMARK    6  A    between atoms: C10_11  and  C11_12
REMARK    7  A    between atoms: C15_17  and  C16_18
REMARK                            x       y       z     vdW  Elec       q    Type
REMARK                         _______ _______ _______ _____ _____    ______ ____
ROOT
ATOM      1  C5  UNL     1      18.106  -5.868  -0.062  0.00  0.00    +0.000 C 
ATOM      2  C6  UNL     1      17.879  -5.589  -1.569  0.00  0.00    +0.000 C 
ATOM      3  C7  UNL     1      18.778  -4.480  -2.102  0.00  0.00    +0.000 C 
ATOM      4  C8  UNL     1      18.129  -6.923  -2.279  0.00  0.00    +0.000 C 
ATOM      5  C9  UNL     1      17.830  -7.968  -1.214  0.00  0.00    +0.000 C 
ATOM      6  C10 UNL     1      18.483  -7.367   0.041  0.00  0.00    +0.000 C 
ENDROOT
BRANCH   6   7
ATOM      7  C11 UNL     1      18.245  -8.063   1.366  0.00  0.00    +0.000 C 
ATOM      8  C12 UNL     1      17.147  -8.900   1.561  0.00  0.00    +0.000 C 
ATOM      9  N1  UNL     1      16.875  -9.582   2.700  0.00  0.00    +0.000 NA
ATOM     10  C13 UNL     1      17.733  -9.436   3.723  0.00  0.00    +0.000 C 
ATOM     11  C14 UNL     1      18.851  -8.632   3.662  0.00  0.00    +0.000 C 
ATOM     12  C15 UNL     1      19.107  -7.935   2.474  0.00  0.00    +0.000 C 
BRANCH  12  13
ATOM     13  C16 UNL     1      20.330  -7.093   2.431  0.00  0.00    +0.000 C 
ATOM     14  N2  UNL     1      21.506  -7.749   2.194  0.00  0.00    +0.000 N 
ATOM     15  O2  UNL     1      20.307  -5.886   2.620  0.00  0.00    +0.000 OA
ATOM     16  H   UNL     1      21.505  -8.722   2.043  0.00  0.00    +0.000 HD
ATOM     17  H   UNL     1      22.353  -7.248   2.175  0.00  0.00    +0.000 HD
ENDBRANCH  12  13
ENDBRANCH   6   7
BRANCH   1  18
ATOM     18  C4  UNL     1      16.836  -5.498   0.703  0.00  0.00    +0.000 C 
ATOM     19  O1  UNL     1      15.717  -5.794   0.284  0.00  0.00    +0.000 OA
BRANCH  18  20
ATOM     20  C3  UNL     1      17.035  -4.684   1.971  0.00  0.00    +0.000 C 
BRANCH  20  22
ATOM     21  C1  UNL     1      16.623  -2.495   3.144  0.00  0.00    +0.000 C 
ATOM     22  C2  UNL     1      16.296  -3.350   1.931  0.00  0.00    +0.000 C 
ENDBRANCH  20  22
ENDBRANCH  18  20
ENDBRANCH   1  18
TORSDOF 5
ENDMDL
MODEL 7
REMARK VINA RESULT:    -5.543      2.231      4.126
REMARK INTER + INTRA:          -8.449
REMARK INTER:                  -7.214
REMARK INTRA:                  -1.235
REMARK UNBOUND:                -1.285
REMARK  Name = ligantes_geracao2\Derivado_017.pdb
REMARK  7 active torsions:
REMARK  status: ('A' for Active; 'I' for Inactive)
REMARK    1  A    between atoms: C1_1  and  C2_2
REMARK    2  A    between atoms: C2_2  and  C3_3
REMARK    3  A    between atoms: C3_3  and  C4_4
REMARK    4  A    between atoms: C4_4  and  C5_6
REMARK    5  A    between atoms: C6_7  and  C7_8
REMARK    6  A    between atoms: C10_11  and  C11_12
REMARK    7  A    between atoms: C15_17  and  C16_18
REMARK                            x       y       z     vdW  Elec       q    Type
REMARK                         _______ _______ _______ _____ _____    ______ ____
ROOT
ATOM      1  C5  UNL     1      20.262  18.774  17.546  0.00  0.00    +0.000 C 
ATOM      2  C6  UNL     1      19.999  17.702  16.460  0.00  0.00    +0.000 C 
ATOM      3  C7  UNL     1      18.824  16.795  16.802  0.00  0.00    +0.000 C 
ATOM      4  C8  UNL     1      19.767  18.477  15.160  0.00  0.00    +0.000 C 
ATOM      5  C9  UNL     1      20.519  19.783  15.371  0.00  0.00    +0.000 C 
ATOM      6  C10 UNL     1      20.168  20.142  16.824  0.00  0.00    +0.000 C 
ENDROOT
BRANCH   6   7
ATOM      7  C11 UNL     1      20.883  21.321  17.454  0.00  0.00    +0.000 C 
ATOM      8  C12 UNL     1      22.110  21.772  16.968  0.00  0.00    +0.000 C 
ATOM      9  N1  UNL     1      22.801  22.833  17.453  0.00  0.00    +0.000 NA
ATOM     10  C13 UNL     1      22.259  23.499  18.485  0.00  0.00    +0.000 C 
ATOM     11  C14 UNL     1      21.058  23.150  19.062  0.00  0.00    +0.000 C 
ATOM     12  C15 UNL     1      20.365  22.047  18.545  0.00  0.00    +0.000 C 
BRANCH  12  13
ATOM     13  C16 UNL     1      19.063  21.707  19.174  0.00  0.00    +0.000 C 
ATOM     14  N2  UNL     1      17.944  22.116  18.504  0.00  0.00    +0.000 N 
ATOM     15  O2  UNL     1      18.979  21.120  20.242  0.00  0.00    +0.000 OA
ATOM     16  H   UNL     1      18.031  22.589  17.644  0.00  0.00    +0.000 HD
ATOM     17  H   UNL     1      17.052  21.939  18.881  0.00  0.00    +0.000 HD
ENDBRANCH  12  13
ENDBRANCH   6   7
BRANCH   1  18
ATOM     18  C4  UNL     1      21.624  18.505  18.183  0.00  0.00    +0.000 C 
ATOM     19  O1  UNL     1      22.641  18.363  17.505  0.00  0.00    +0.000 OA
BRANCH  18  20
ATOM     20  C3  UNL     1      21.634  18.356  19.696  0.00  0.00    +0.000 C 
BRANCH  20  22
ATOM     21  C1  UNL     1      21.764  19.741  21.794  0.00  0.00    +0.000 C 
ATOM     22  C2  UNL     1      22.316  19.529  20.394  0.00  0.00    +0.000 C 
ENDBRANCH  20  22
ENDBRANCH  18  20
ENDBRANCH   1  18
TORSDOF 5
ENDMDL
MODEL 8
REMARK VINA RESULT:    -5.517     30.114     32.296
REMARK INTER + INTRA:          -8.414
REMARK INTER:                  -7.091
REMARK INTRA:                  -1.323
REMARK UNBOUND:                -1.285
REMARK  Name = ligantes_geracao2\Derivado_017.pdb
REMARK  7 active torsions:
REMARK  status: ('A' for Active; 'I' for Inactive)
REMARK    1  A    between atoms: C1_1  and  C2_2
REMARK    2  A    between atoms: C2_2  and  C3_3
REMARK    3  A    between atoms: C3_3  and  C4_4
REMARK    4  A    between atoms: C4_4  and  C5_6
REMARK    5  A    between atoms: C6_7  and  C7_8
REMARK    6  A    between atoms: C10_11  and  C11_12
REMARK    7  A    between atoms: C15_17  and  C16_18
REMARK                            x       y       z     vdW  Elec       q    Type
REMARK                         _______ _______ _______ _____ _____    ______ ____
ROOT
ATOM      1  C5  UNL     1      17.922  -4.840   1.288  0.00  0.00    +0.000 C 
ATOM      2  C6  UNL     1      19.350  -5.430   1.408  0.00  0.00    +0.000 C 
ATOM      3  C7  UNL     1      20.294  -4.528   2.193  0.00  0.00    +0.000 C 
ATOM      4  C8  UNL     1      19.178  -6.799   2.073  0.00  0.00    +0.000 C 
ATOM      5  C9  UNL     1      17.758  -7.209   1.709  0.00  0.00    +0.000 C 
ATOM      6  C10 UNL     1      16.971  -5.901   1.896  0.00  0.00    +0.000 C 
ENDROOT
BRANCH   6   7
ATOM      7  C11 UNL     1      15.520  -5.879   1.459  0.00  0.00    +0.000 C 
ATOM      8  C12 UNL     1      15.012  -6.832   0.576  0.00  0.00    +0.000 C 
ATOM      9  N1  UNL     1      13.725  -6.902   0.158  0.00  0.00    +0.000 NA
ATOM     10  C13 UNL     1      12.874  -5.978   0.630  0.00  0.00    +0.000 C 
ATOM     11  C14 UNL     1      13.252  -4.978   1.501  0.00  0.00    +0.000 C 
ATOM     12  C15 UNL     1      14.589  -4.926   1.915  0.00  0.00    +0.000 C 
BRANCH  12  13
ATOM     13  C16 UNL     1      14.962  -3.850   2.870  0.00  0.00    +0.000 C 
ATOM     14  N2  UNL     1      14.877  -4.165   4.197  0.00  0.00    +0.000 N 
ATOM     15  O2  UNL     1      15.302  -2.734   2.507  0.00  0.00    +0.000 OA
ATOM     16  H   UNL     1      14.601  -5.070   4.472  0.00  0.00    +0.000 HD
ATOM     17  H   UNL     1      15.090  -3.488   4.879  0.00  0.00    +0.000 HD
ENDBRANCH  12  13
ENDBRANCH   6   7
BRANCH   1  18
ATOM     18  C4  UNL     1      17.641  -4.530  -0.181  0.00  0.00    +0.000 C 
ATOM     19  O1  UNL     1      16.818  -3.679  -0.518  0.00  0.00    +0.000 OA
BRANCH  18  20
ATOM     20  C3  UNL     1      18.385  -5.382  -1.197  0.00  0.00    +0.000 C 
BRANCH  20  22
ATOM     21  C1  UNL     1      17.616  -7.637  -2.008  0.00  0.00    +0.000 C 
ATOM     22  C2  UNL     1      17.441  -6.132  -2.132  0.00  0.00    +0.000 C 
ENDBRANCH  20  22
ENDBRANCH  18  20
ENDBRANCH   1  18
TORSDOF 5
ENDMDL
MODEL 9
REMARK VINA RESULT:    -5.276     39.484     41.326
REMARK INTER + INTRA:          -8.103
REMARK INTER:                  -6.765
REMARK INTRA:                  -1.337
REMARK UNBOUND:                -1.285
REMARK  Name = ligantes_geracao2\Derivado_017.pdb
REMARK  7 active torsions:
REMARK  status: ('A' for Active; 'I' for Inactive)
REMARK    1  A    between atoms: C1_1  and  C2_2
REMARK    2  A    between atoms: C2_2  and  C3_3
REMARK    3  A    between atoms: C3_3  and  C4_4
REMARK    4  A    between atoms: C4_4  and  C5_6
REMARK    5  A    between atoms: C6_7  and  C7_8
REMARK    6  A    between atoms: C10_11  and  C11_12
REMARK    7  A    between atoms: C15_17  and  C16_18
REMARK                            x       y       z     vdW  Elec       q    Type
REMARK                         _______ _______ _______ _____ _____    ______ ____
ROOT
ATOM      1  C5  UNL     1      23.028 -13.792  -4.801  0.00  0.00    +0.000 C 
ATOM      2  C6  UNL     1      24.536 -13.742  -5.149  0.00  0.00    +0.000 C 
ATOM      3  C7  UNL     1      24.789 -13.509  -6.633  0.00  0.00    +0.000 C 
ATOM      4  C8  UNL     1      25.124 -12.622  -4.285  0.00  0.00    +0.000 C 
ATOM      5  C9  UNL     1      24.186 -12.551  -3.088  0.00  0.00    +0.000 C 
ATOM      6  C10 UNL     1      22.799 -12.688  -3.739  0.00  0.00    +0.000 C 
ENDROOT
BRANCH   6   7
ATOM      7  C11 UNL     1      21.599 -12.827  -2.824  0.00  0.00    +0.000 C 
ATOM      8  C12 UNL     1      21.728 -13.311  -1.523  0.00  0.00    +0.000 C 
ATOM      9  N1  UNL     1      20.715 -13.441  -0.632  0.00  0.00    +0.000 NA
ATOM     10  C13 UNL     1      19.488 -13.076  -1.039  0.00  0.00    +0.000 C 
ATOM     11  C14 UNL     1      19.225 -12.592  -2.302  0.00  0.00    +0.000 C 
ATOM     12  C15 UNL     1      20.290 -12.471  -3.205  0.00  0.00    +0.000 C 
BRANCH  12  13
ATOM     13  C16 UNL     1      19.979 -11.927  -4.552  0.00  0.00    +0.000 C 
ATOM     14  N2  UNL     1      19.219 -12.722  -5.364  0.00  0.00    +0.000 N 
ATOM     15  O2  UNL     1      20.394 -10.844  -4.939  0.00  0.00    +0.000 OA
ATOM     16  H   UNL     1      18.894 -13.592  -5.035  0.00  0.00    +0.000 HD
ATOM     17  H   UNL     1      18.998 -12.426  -6.276  0.00  0.00    +0.000 HD
ENDBRANCH  12  13
ENDBRANCH   6   7
BRANCH   1  18
ATOM     18  C4  UNL     1      22.683 -15.198  -4.312  0.00  0.00    +0.000 C 
ATOM     19  O1  UNL     1      23.480 -15.872  -3.661  0.00  0.00    +0.000 OA
BRANCH  18  20
ATOM     20  C3  UNL     1      21.327 -15.738  -4.739  0.00  0.00    +0.000 C 
BRANCH  20  22
ATOM     21  C1  UNL     1      19.143 -16.032  -3.523  0.00  0.00    +0.000 C 
ATOM     22  C2  UNL     1      20.601 -16.454  -3.604  0.00  0.00    +0.000 C 
ENDBRANCH  20  22
ENDBRANCH  18  20
ENDBRANCH   1  18
TORSDOF 5
ENDMDL
