MODEL 1
REMARK VINA RESULT:    -6.770      0.000      0.000
REMARK INTER + INTRA:          -9.965
REMARK INTER:                  -8.749
REMARK INTRA:                  -1.216
REMARK UNBOUND:                -1.216
REMARK  Name = ligantes_geracao2\Derivado_018.pdb
REMARK  7 active torsions:
REMARK  status: ('A' for Active; 'I' for Inactive)
REMARK    1  A    between atoms: C_1  and  C_2
REMARK    2  A    between atoms: C_2  and  C_3
REMARK    3  A    between atoms: C_3  and  C_4
REMARK    4  A    between atoms: C_4  and  C_6
REMARK    5  A    between atoms: C_7  and  C_8
REMARK    6  A    between atoms: C_11  and  C_12
REMARK    7  A    between atoms: C_17  and  C_18
REMARK                            x       y       z     vdW  Elec       q    Type
REMARK                         _______ _______ _______ _____ _____    ______ ____
ROOT
ATOM      1  C   UNL     1      16.294  -6.010   2.383  0.00  0.00    +0.000 C 
ATOM      2  C   UNL     1      15.986  -4.651   2.472  0.00  0.00    +0.000 C 
ATOM      3  N   UNL     1      15.020  -4.123   3.255  0.00  0.00    +0.000 NA
ATOM      4  C   UNL     1      14.305  -4.980   4.003  0.00  0.00    +0.000 C 
ATOM      5  C   UNL     1      14.503  -6.347   3.987  0.00  0.00    +0.000 C 
ATOM      6  C   UNL     1      15.505  -6.878   3.163  0.00  0.00    +0.000 C 
ENDROOT
BRANCH   1  12
ATOM      7  C   UNL     1      18.357  -5.368   0.972  0.00  0.00    +0.000 C 
ATOM      8  C   UNL     1      18.452  -5.543  -0.558  0.00  0.00    +0.000 C 
ATOM      9  C   UNL     1      18.771  -4.244  -1.287  0.00  0.00    +0.000 C 
ATOM     10  C   UNL     1      17.091  -6.108  -0.945  0.00  0.00    +0.000 C 
ATOM     11  C   UNL     1      16.810  -7.113   0.161  0.00  0.00    +0.000 C 
ATOM     12  C   UNL     1      17.395  -6.492   1.446  0.00  0.00    +0.000 C 
BRANCH   7  13
ATOM     13  C   UNL     1      19.720  -5.478   1.659  0.00  0.00    +0.000 C 
ATOM     14  O   UNL     1      20.356  -4.484   2.013  0.00  0.00    +0.000 OA
BRANCH  13  15
ATOM     15  C   UNL     1      20.259  -6.877   1.902  0.00  0.00    +0.000 C 
BRANCH  15  17
ATOM     16  C   UNL     1      20.157  -8.438   3.898  0.00  0.00    +0.000 C 
ATOM     17  C   UNL     1      20.648  -7.100   3.361  0.00  0.00    +0.000 C 
ENDBRANCH  15  17
ENDBRANCH  13  15
ENDBRANCH   7  13
ENDBRANCH   1  12
BRANCH   6  18
ATOM     18  C   UNL     1      15.690  -8.322   3.157  0.00  0.00    +0.000 C 
ATOM     19  N   UNL     1      15.074  -9.219   2.415  0.00  0.00    +0.000 NA
ATOM     20  N   UNL     1      15.592 -10.440   2.771  0.00  0.00    +0.000 NA
ATOM     21  N   UNL     1      16.511 -10.308   3.717  0.00  0.00    +0.000 NA
ATOM     22  N   UNL     1      16.574  -8.992   3.958  0.00  0.00    +0.000 N 
ATOM     23  H   UNL     1      17.170  -8.568   4.617  0.00  0.00    +0.000 HD
ENDBRANCH   6  18
TORSDOF 5
ENDMDL
MODEL 2
REMARK VINA RESULT:    -6.609     27.938     29.956
REMARK INTER + INTRA:          -9.756
REMARK INTER:                  -8.637
REMARK INTRA:                  -1.119
REMARK UNBOUND:                -1.216
REMARK  Name = ligantes_geracao2\Derivado_018.pdb
REMARK  7 active torsions:
REMARK  status: ('A' for Active; 'I' for Inactive)
REMARK    1  A    between atoms: C_1  and  C_2
REMARK    2  A    between atoms: C_2  and  C_3
REMARK    3  A    between atoms: C_3  and  C_4
REMARK    4  A    between atoms: C_4  and  C_6
REMARK    5  A    between atoms: C_7  and  C_8
REMARK    6  A    between atoms: C_11  and  C_12
REMARK    7  A    between atoms: C_17  and  C_18
REMARK                            x       y       z     vdW  Elec       q    Type
REMARK                         _______ _______ _______ _____ _____    ______ ____
ROOT
ATOM      1  C   UNL     1      19.723  18.501  16.872  0.00  0.00    +0.000 C 
ATOM      2  C   UNL     1      19.698  19.586  15.992  0.00  0.00    +0.000 C 
ATOM      3  N   UNL     1      18.882  19.699  14.921  0.00  0.00    +0.000 NA
ATOM      4  C   UNL     1      18.030  18.685  14.693  0.00  0.00    +0.000 C 
ATOM      5  C   UNL     1      17.973  17.552  15.480  0.00  0.00    +0.000 C 
ATOM      6  C   UNL     1      18.833  17.447  16.583  0.00  0.00    +0.000 C 
ENDROOT
BRANCH   1  12
ATOM      7  C   UNL     1      20.834  19.830  18.785  0.00  0.00    +0.000 C 
ATOM      8  C   UNL     1      22.352  20.077  18.902  0.00  0.00    +0.000 C 
ATOM      9  C   UNL     1      22.709  21.556  18.986  0.00  0.00    +0.000 C 
ATOM     10  C   UNL     1      22.928  19.409  17.660  0.00  0.00    +0.000 C 
ATOM     11  C   UNL     1      22.129  18.118  17.564  0.00  0.00    +0.000 C 
ATOM     12  C   UNL     1      20.705  18.475  18.036  0.00  0.00    +0.000 C 
BRANCH   7  13
ATOM     13  C   UNL     1      20.142  19.779  20.148  0.00  0.00    +0.000 C 
ATOM     14  O   UNL     1      19.428  20.697  20.553  0.00  0.00    +0.000 OA
BRANCH  13  15
ATOM     15  C   UNL     1      20.361  18.532  20.987  0.00  0.00    +0.000 C 
BRANCH  15  17
ATOM     16  C   UNL     1      22.636  17.773  21.812  0.00  0.00    +0.000 C 
ATOM     17  C   UNL     1      21.464  18.722  22.026  0.00  0.00    +0.000 C 
ENDBRANCH  15  17
ENDBRANCH  13  15
ENDBRANCH   7  13
ENDBRANCH   1  12
BRANCH   6  18
ATOM     18  C   UNL     1      18.760  16.241  17.394  0.00  0.00    +0.000 C 
ATOM     19  N   UNL     1      18.681  14.990  16.987  0.00  0.00    +0.000 NA
ATOM     20  N   UNL     1      18.639  14.215  18.121  0.00  0.00    +0.000 NA
ATOM     21  N   UNL     1      18.689  14.966  19.212  0.00  0.00    +0.000 NA
ATOM     22  N   UNL     1      18.765  16.226  18.762  0.00  0.00    +0.000 N 
ATOM     23  H   UNL     1      18.816  17.026  19.334  0.00  0.00    +0.000 HD
ENDBRANCH   6  18
TORSDOF 5
ENDMDL
MODEL 3
REMARK VINA RESULT:    -6.583      3.436      5.445
REMARK INTER + INTRA:          -9.723
REMARK INTER:                  -8.307
REMARK INTRA:                  -1.416
REMARK UNBOUND:                -1.216
REMARK  Name = ligantes_geracao2\Derivado_018.pdb
REMARK  7 active torsions:
REMARK  status: ('A' for Active; 'I' for Inactive)
REMARK    1  A    between atoms: C_1  and  C_2
REMARK    2  A    between atoms: C_2  and  C_3
REMARK    3  A    between atoms: C_3  and  C_4
REMARK    4  A    between atoms: C_4  and  C_6
REMARK    5  A    between atoms: C_7  and  C_8
REMARK    6  A    between atoms: C_11  and  C_12
REMARK    7  A    between atoms: C_17  and  C_18
REMARK                            x       y       z     vdW  Elec       q    Type
REMARK                         _______ _______ _______ _____ _____    ______ ____
ROOT
ATOM      1  C   UNL     1      18.603  -7.523   2.229  0.00  0.00    +0.000 C 
ATOM      2  C   UNL     1      17.693  -6.545   1.823  0.00  0.00    +0.000 C 
ATOM      3  N   UNL     1      17.975  -5.230   1.687  0.00  0.00    +0.000 NA
ATOM      4  C   UNL     1      19.231  -4.843   1.966  0.00  0.00    +0.000 C 
ATOM      5  C   UNL     1      20.214  -5.713   2.394  0.00  0.00    +0.000 C 
ATOM      6  C   UNL     1      19.902  -7.073   2.537  0.00  0.00    +0.000 C 
ENDROOT
BRANCH   1  12
ATOM      7  C   UNL     1      17.095  -9.414   1.330  0.00  0.00    +0.000 C 
ATOM      8  C   UNL     1      16.002 -10.121   2.157  0.00  0.00    +0.000 C 
ATOM      9  C   UNL     1      14.625 -10.048   1.510  0.00  0.00    +0.000 C 
ATOM     10  C   UNL     1      16.049  -9.413   3.505  0.00  0.00    +0.000 C 
ATOM     11  C   UNL     1      17.541  -9.247   3.752  0.00  0.00    +0.000 C 
ATOM     12  C   UNL     1      18.164  -8.976   2.368  0.00  0.00    +0.000 C 
BRANCH   7  13
ATOM     13  C   UNL     1      17.701 -10.325   0.260  0.00  0.00    +0.000 C 
ATOM     14  O   UNL     1      17.991 -11.499   0.489  0.00  0.00    +0.000 OA
BRANCH  13  15
ATOM     15  C   UNL     1      17.919  -9.721  -1.117  0.00  0.00    +0.000 C 
BRANCH  15  17
ATOM     16  C   UNL     1      17.947  -7.268  -1.761  0.00  0.00    +0.000 C 
ATOM     17  C   UNL     1      17.094  -8.454  -1.328  0.00  0.00    +0.000 C 
ENDBRANCH  15  17
ENDBRANCH  13  15
ENDBRANCH   7  13
ENDBRANCH   1  12
BRANCH   6  18
ATOM     18  C   UNL     1      20.953  -7.969   2.997  0.00  0.00    +0.000 C 
ATOM     19  N   UNL     1      21.018  -8.633   4.133  0.00  0.00    +0.000 NA
ATOM     20  N   UNL     1      22.195  -9.341   4.103  0.00  0.00    +0.000 NA
ATOM     21  N   UNL     1      22.851  -9.123   2.972  0.00  0.00    +0.000 NA
ATOM     22  N   UNL     1      22.081  -8.271   2.283  0.00  0.00    +0.000 N 
ATOM     23  H   UNL     1      22.295  -7.912   1.391  0.00  0.00    +0.000 HD
ENDBRANCH   6  18
TORSDOF 5
ENDMDL
MODEL 4
REMARK VINA RESULT:    -6.565      3.551      5.243
REMARK INTER + INTRA:          -9.700
REMARK INTER:                  -8.409
REMARK INTRA:                  -1.291
REMARK UNBOUND:                -1.216
REMARK  Name = ligantes_geracao2\Derivado_018.pdb
REMARK  7 active torsions:
REMARK  status: ('A' for Active; 'I' for Inactive)
REMARK    1  A    between atoms: C_1  and  C_2
REMARK    2  A    between atoms: C_2  and  C_3
REMARK    3  A    between atoms: C_3  and  C_4
REMARK    4  A    between atoms: C_4  and  C_6
REMARK    5  A    between atoms: C_7  and  C_8
REMARK    6  A    between atoms: C_11  and  C_12
REMARK    7  A    between atoms: C_17  and  C_18
REMARK                            x       y       z     vdW  Elec       q    Type
REMARK                         _______ _______ _______ _____ _____    ______ ____
ROOT
ATOM      1  C   UNL     1      18.139  -7.726   2.426  0.00  0.00    +0.000 C 
ATOM      2  C   UNL     1      17.482  -6.686   1.766  0.00  0.00    +0.000 C 
ATOM      3  N   UNL     1      18.063  -5.538   1.351  0.00  0.00    +0.000 NA
ATOM      4  C   UNL     1      19.376  -5.396   1.597  0.00  0.00    +0.000 C 
ATOM      5  C   UNL     1      20.131  -6.346   2.257  0.00  0.00    +0.000 C 
ATOM      6  C   UNL     1      19.509  -7.528   2.688  0.00  0.00    +0.000 C 
ENDROOT
BRANCH   1  12
ATOM      7  C   UNL     1      17.162 -10.013   1.736  0.00  0.00    +0.000 C 
ATOM      8  C   UNL     1      15.663 -10.371   1.799  0.00  0.00    +0.000 C 
ATOM      9  C   UNL     1      15.104 -10.830   0.458  0.00  0.00    +0.000 C 
ATOM     10  C   UNL     1      15.002  -9.092   2.297  0.00  0.00    +0.000 C 
ATOM     11  C   UNL     1      15.961  -8.608   3.373  0.00  0.00    +0.000 C 
ATOM     12  C   UNL     1      17.373  -8.968   2.865  0.00  0.00    +0.000 C 
BRANCH   7  13
ATOM     13  C   UNL     1      18.064 -11.233   1.933  0.00  0.00    +0.000 C 
ATOM     14  O   UNL     1      18.573 -11.830   0.984  0.00  0.00    +0.000 OA
BRANCH  13  15
ATOM     15  C   UNL     1      18.321 -11.676   3.363  0.00  0.00    +0.000 C 
BRANCH  15  17
ATOM     16  C   UNL     1      20.189 -13.214   4.124  0.00  0.00    +0.000 C 
ATOM     17  C   UNL     1      18.833 -13.113   3.438  0.00  0.00    +0.000 C 
ENDBRANCH  15  17
ENDBRANCH  13  15
ENDBRANCH   7  13
ENDBRANCH   1  12
BRANCH   6  18
ATOM     18  C   UNL     1      20.323  -8.511   3.388  0.00  0.00    +0.000 C 
ATOM     19  N   UNL     1      20.282  -8.844   4.662  0.00  0.00    +0.000 NA
ATOM     20  N   UNL     1      21.237  -9.814   4.841  0.00  0.00    +0.000 NA
ATOM     21  N   UNL     1      21.862 -10.081   3.703  0.00  0.00    +0.000 NA
ATOM     22  N   UNL     1      21.296  -9.272   2.798  0.00  0.00    +0.000 N 
ATOM     23  H   UNL     1      21.543  -9.231   1.846  0.00  0.00    +0.000 HD
ENDBRANCH   6  18
TORSDOF 5
ENDMDL
MODEL 5
REMARK VINA RESULT:    -6.527     23.822     26.073
REMARK INTER + INTRA:          -9.651
REMARK INTER:                  -8.420
REMARK INTRA:                  -1.231
REMARK UNBOUND:                -1.216
REMARK  Name = ligantes_geracao2\Derivado_018.pdb
REMARK  7 active torsions:
REMARK  status: ('A' for Active; 'I' for Inactive)
REMARK    1  A    between atoms: C_1  and  C_2
REMARK    2  A    between atoms: C_2  and  C_3
REMARK    3  A    between atoms: C_3  and  C_4
REMARK    4  A    between atoms: C_4  and  C_6
REMARK    5  A    between atoms: C_7  and  C_8
REMARK    6  A    between atoms: C_11  and  C_12
REMARK    7  A    between atoms: C_17  and  C_18
REMARK                            x       y       z     vdW  Elec       q    Type
REMARK                         _______ _______ _______ _____ _____    ______ ____
ROOT
ATOM      1  C   UNL     1       1.883   0.697  20.560  0.00  0.00    +0.000 C 
ATOM      2  C   UNL     1       1.464  -0.457  19.895  0.00  0.00    +0.000 C 
ATOM      3  N   UNL     1       1.435  -1.697  20.433  0.00  0.00    +0.000 NA
ATOM      4  C   UNL     1       1.843  -1.818  21.707  0.00  0.00    +0.000 C 
ATOM      5  C   UNL     1       2.297  -0.755  22.462  0.00  0.00    +0.000 C 
ATOM      6  C   UNL     1       2.328   0.523  21.886  0.00  0.00    +0.000 C 
ENDROOT
BRANCH   1  12
ATOM      7  C   UNL     1       0.548   2.397  19.150  0.00  0.00    +0.000 C 
ATOM      8  C   UNL     1       0.938   2.839  17.725  0.00  0.00    +0.000 C 
ATOM      9  C   UNL     1      -0.170   2.606  16.706  0.00  0.00    +0.000 C 
ATOM     10  C   UNL     1       2.189   2.026  17.419  0.00  0.00    +0.000 C 
ATOM     11  C   UNL     1       2.960   2.078  18.729  0.00  0.00    +0.000 C 
ATOM     12  C   UNL     1       1.893   2.041  19.842  0.00  0.00    +0.000 C 
BRANCH   7  13
ATOM     13  C   UNL     1      -0.199   3.489  19.918  0.00  0.00    +0.000 C 
ATOM     14  O   UNL     1      -1.427   3.588  19.885  0.00  0.00    +0.000 OA
BRANCH  13  15
ATOM     15  C   UNL     1       0.640   4.449  20.744  0.00  0.00    +0.000 C 
BRANCH  15  17
ATOM     16  C   UNL     1       2.385   6.063  19.862  0.00  0.00    +0.000 C 
ATOM     17  C   UNL     1       0.899   5.763  20.013  0.00  0.00    +0.000 C 
ENDBRANCH  15  17
ENDBRANCH  13  15
ENDBRANCH   7  13
ENDBRANCH   1  12
BRANCH   6  18
ATOM     18  C   UNL     1       2.817   1.627  22.698  0.00  0.00    +0.000 C 
ATOM     19  N   UNL     1       3.688   2.558  22.368  0.00  0.00    +0.000 NA
ATOM     20  N   UNL     1       3.822   3.373  23.466  0.00  0.00    +0.000 NA
ATOM     21  N   UNL     1       3.050   2.958  24.461  0.00  0.00    +0.000 NA
ATOM     22  N   UNL     1       2.425   1.873  23.986  0.00  0.00    +0.000 N 
ATOM     23  H   UNL     1       1.777   1.330  24.491  0.00  0.00    +0.000 HD
ENDBRANCH   6  18
TORSDOF 5
ENDMDL
MODEL 6
REMARK VINA RESULT:    -6.333     23.894     26.101
REMARK INTER + INTRA:          -9.400
REMARK INTER:                  -8.046
REMARK INTRA:                  -1.354
REMARK UNBOUND:                -1.216
REMARK  Name = ligantes_geracao2\Derivado_018.pdb
REMARK  7 active torsions:
REMARK  status: ('A' for Active; 'I' for Inactive)
REMARK    1  A    between atoms: C_1  and  C_2
REMARK    2  A    between atoms: C_2  and  C_3
REMARK    3  A    between atoms: C_3  and  C_4
REMARK    4  A    between atoms: C_4  and  C_6
REMARK    5  A    between atoms: C_7  and  C_8
REMARK    6  A    between atoms: C_11  and  C_12
REMARK    7  A    between atoms: C_17  and  C_18
REMARK                            x       y       z     vdW  Elec       q    Type
REMARK                         _______ _______ _______ _____ _____    ______ ____
ROOT
ATOM      1  C   UNL     1       1.763   0.526  20.507  0.00  0.00    +0.000 C 
ATOM      2  C   UNL     1       1.414  -0.642  19.825  0.00  0.00    +0.000 C 
ATOM      3  N   UNL     1       1.631  -1.898  20.275  0.00  0.00    +0.000 NA
ATOM      4  C   UNL     1       2.229  -2.023  21.471  0.00  0.00    +0.000 C 
ATOM      5  C   UNL     1       2.637  -0.944  22.231  0.00  0.00    +0.000 C 
ATOM      6  C   UNL     1       2.411   0.352  21.745  0.00  0.00    +0.000 C 
ENDROOT
BRANCH   1  12
ATOM      7  C   UNL     1       0.203   1.941  19.015  0.00  0.00    +0.000 C 
ATOM      8  C   UNL     1       0.640   2.623  17.703  0.00  0.00    +0.000 C 
ATOM      9  C   UNL     1      -0.207   2.209  16.506  0.00  0.00    +0.000 C 
ATOM     10  C   UNL     1       2.101   2.218  17.550  0.00  0.00    +0.000 C 
ATOM     11  C   UNL     1       2.639   2.337  18.967  0.00  0.00    +0.000 C 
ATOM     12  C   UNL     1       1.486   1.891  19.889  0.00  0.00    +0.000 C 
BRANCH   7  13
ATOM     13  C   UNL     1      -0.922   2.699  19.723  0.00  0.00    +0.000 C 
ATOM     14  O   UNL     1      -0.792   3.867  20.093  0.00  0.00    +0.000 OA
BRANCH  13  15
ATOM     15  C   UNL     1      -2.226   1.951  19.942  0.00  0.00    +0.000 C 
BRANCH  15  17
ATOM     16  C   UNL     1      -2.176  -0.496  20.603  0.00  0.00    +0.000 C 
ATOM     17  C   UNL     1      -2.151   0.506  19.456  0.00  0.00    +0.000 C 
ENDBRANCH  15  17
ENDBRANCH  13  15
ENDBRANCH   7  13
ENDBRANCH   1  12
BRANCH   6  18
ATOM     18  C   UNL     1       2.857   1.473  22.560  0.00  0.00    +0.000 C 
ATOM     19  N   UNL     1       3.770   2.377  22.271  0.00  0.00    +0.000 NA
ATOM     20  N   UNL     1       3.832   3.226  23.350  0.00  0.00    +0.000 NA
ATOM     21  N   UNL     1       2.976   2.858  24.292  0.00  0.00    +0.000 NA
ATOM     22  N   UNL     1       2.369   1.769  23.804  0.00  0.00    +0.000 N 
ATOM     23  H   UNL     1       1.671   1.255  24.271  0.00  0.00    +0.000 HD
ENDBRANCH   6  18
TORSDOF 5
ENDMDL
MODEL 7
REMARK VINA RESULT:    -6.238     22.797     24.594
REMARK INTER + INTRA:          -9.277
REMARK INTER:                  -8.157
REMARK INTRA:                  -1.119
REMARK UNBOUND:                -1.216
REMARK  Name = ligantes_geracao2\Derivado_018.pdb
REMARK  7 active torsions:
REMARK  status: ('A' for Active; 'I' for Inactive)
REMARK    1  A    between atoms: C_1  and  C_2
REMARK    2  A    between atoms: C_2  and  C_3
REMARK    3  A    between atoms: C_3  and  C_4
REMARK    4  A    between atoms: C_4  and  C_6
REMARK    5  A    between atoms: C_7  and  C_8
REMARK    6  A    between atoms: C_11  and  C_12
REMARK    7  A    between atoms: C_17  and  C_18
REMARK                            x       y       z     vdW  Elec       q    Type
REMARK                         _______ _______ _______ _____ _____    ______ ____
ROOT
ATOM      1  C   UNL     1       0.420  -0.698  19.005  0.00  0.00    +0.000 C 
ATOM      2  C   UNL     1      -0.806  -0.041  19.128  0.00  0.00    +0.000 C 
ATOM      3  N   UNL     1      -2.012  -0.594  18.873  0.00  0.00    +0.000 NA
ATOM      4  C   UNL     1      -2.024  -1.876  18.471  0.00  0.00    +0.000 C 
ATOM      5  C   UNL     1      -0.877  -2.625  18.295  0.00  0.00    +0.000 C 
ATOM      6  C   UNL     1       0.368  -2.033  18.556  0.00  0.00    +0.000 C 
ENDROOT
BRANCH   1  12
ATOM      7  C   UNL     1       1.582   1.173  20.349  0.00  0.00    +0.000 C 
ATOM      8  C   UNL     1       2.285   2.391  19.714  0.00  0.00    +0.000 C 
ATOM      9  C   UNL     1       1.735   3.722  20.211  0.00  0.00    +0.000 C 
ATOM     10  C   UNL     1       2.072   2.196  18.218  0.00  0.00    +0.000 C 
ATOM     11  C   UNL     1       2.294   0.703  18.032  0.00  0.00    +0.000 C 
ATOM     12  C   UNL     1       1.723   0.036  19.300  0.00  0.00    +0.000 C 
BRANCH   7  13
ATOM     13  C   UNL     1       2.202   0.773  21.689  0.00  0.00    +0.000 C 
ATOM     14  O   UNL     1       1.685  -0.070  22.423  0.00  0.00    +0.000 OA
BRANCH  13  15
ATOM     15  C   UNL     1       3.504   1.453  22.077  0.00  0.00    +0.000 C 
BRANCH  15  17
ATOM     16  C   UNL     1       3.688   3.644  23.340  0.00  0.00    +0.000 C 
ATOM     17  C   UNL     1       3.409   2.150  23.432  0.00  0.00    +0.000 C 
ENDBRANCH  15  17
ENDBRANCH  13  15
ENDBRANCH   7  13
ENDBRANCH   1  12
BRANCH   6  18
ATOM     18  C   UNL     1       1.563  -2.839  18.356  0.00  0.00    +0.000 C 
ATOM     19  N   UNL     1       2.370  -2.854  17.316  0.00  0.00    +0.000 NA
ATOM     20  N   UNL     1       3.351  -3.774  17.598  0.00  0.00    +0.000 NA
ATOM     21  N   UNL     1       3.158  -4.322  18.789  0.00  0.00    +0.000 NA
ATOM     22  N   UNL     1       2.048  -3.743  19.262  0.00  0.00    +0.000 N 
ATOM     23  H   UNL     1       1.638  -3.939  20.136  0.00  0.00    +0.000 HD
ENDBRANCH   6  18
TORSDOF 5
ENDMDL
MODEL 8
REMARK VINA RESULT:    -6.224     29.093     31.222
REMARK INTER + INTRA:          -9.259
REMARK INTER:                  -8.031
REMARK INTRA:                  -1.229
REMARK UNBOUND:                -1.216
REMARK  Name = ligantes_geracao2\Derivado_018.pdb
REMARK  7 active torsions:
REMARK  status: ('A' for Active; 'I' for Inactive)
REMARK    1  A    between atoms: C_1  and  C_2
REMARK    2  A    between atoms: C_2  and  C_3
REMARK    3  A    between atoms: C_3  and  C_4
REMARK    4  A    between atoms: C_4  and  C_6
REMARK    5  A    between atoms: C_7  and  C_8
REMARK    6  A    between atoms: C_11  and  C_12
REMARK    7  A    between atoms: C_17  and  C_18
REMARK                            x       y       z     vdW  Elec       q    Type
REMARK                         _______ _______ _______ _____ _____    ______ ____
ROOT
ATOM      1  C   UNL     1      21.265  19.661  18.776  0.00  0.00    +0.000 C 
ATOM      2  C   UNL     1      22.388  20.185  18.132  0.00  0.00    +0.000 C 
ATOM      3  N   UNL     1      23.668  19.850  18.406  0.00  0.00    +0.000 NA
ATOM      4  C   UNL     1      23.866  18.942  19.376  0.00  0.00    +0.000 C 
ATOM      5  C   UNL     1      22.839  18.367  20.098  0.00  0.00    +0.000 C 
ATOM      6  C   UNL     1      21.516  18.732  19.805  0.00  0.00    +0.000 C 
ENDROOT
BRANCH   1  12
ATOM      7  C   UNL     1      19.802  20.886  17.038  0.00  0.00    +0.000 C 
ATOM      8  C   UNL     1      18.994  22.166  17.332  0.00  0.00    +0.000 C 
ATOM      9  C   UNL     1      19.344  23.318  16.399  0.00  0.00    +0.000 C 
ATOM     10  C   UNL     1      19.317  22.477  18.788  0.00  0.00    +0.000 C 
ATOM     11  C   UNL     1      19.293  21.105  19.444  0.00  0.00    +0.000 C 
ATOM     12  C   UNL     1      19.867  20.132  18.395  0.00  0.00    +0.000 C 
BRANCH   7  13
ATOM     13  C   UNL     1      19.158  20.022  15.953  0.00  0.00    +0.000 C 
ATOM     14  O   UNL     1      18.034  20.261  15.509  0.00  0.00    +0.000 OA
BRANCH  13  15
ATOM     15  C   UNL     1      19.973  18.853  15.427  0.00  0.00    +0.000 C 
BRANCH  15  17
ATOM     16  C   UNL     1      19.283  16.785  16.722  0.00  0.00    +0.000 C 
ATOM     17  C   UNL     1      19.173  17.553  15.411  0.00  0.00    +0.000 C 
ENDBRANCH  15  17
ENDBRANCH  13  15
ENDBRANCH   7  13
ENDBRANCH   1  12
BRANCH   6  18
ATOM     18  C   UNL     1      20.451  18.118  20.583  0.00  0.00    +0.000 C 
ATOM     19  N   UNL     1      19.903  18.554  21.699  0.00  0.00    +0.000 NA
ATOM     20  N   UNL     1      18.942  17.634  22.046  0.00  0.00    +0.000 NA
ATOM     21  N   UNL     1      18.893  16.645  21.165  0.00  0.00    +0.000 NA
ATOM     22  N   UNL     1      19.830  16.943  20.255  0.00  0.00    +0.000 N 
ATOM     23  H   UNL     1      20.041  16.397  19.464  0.00  0.00    +0.000 HD
ENDBRANCH   6  18
TORSDOF 5
ENDMDL
MODEL 9
REMARK VINA RESULT:    -6.175      3.292      5.490
REMARK INTER + INTRA:          -9.196
REMARK INTER:                  -7.741
REMARK INTRA:                  -1.456
REMARK UNBOUND:                -1.216
REMARK  Name = ligantes_geracao2\Derivado_018.pdb
REMARK  7 active torsions:
REMARK  status: ('A' for Active; 'I' for Inactive)
REMARK    1  A    between atoms: C_1  and  C_2
REMARK    2  A    between atoms: C_2  and  C_3
REMARK    3  A    between atoms: C_3  and  C_4
REMARK    4  A    between atoms: C_4  and  C_6
REMARK    5  A    between atoms: C_7  and  C_8
REMARK    6  A    between atoms: C_11  and  C_12
REMARK    7  A    between atoms: C_17  and  C_18
REMARK                            x       y       z     vdW  Elec       q    Type
REMARK                         _______ _______ _______ _____ _____    ______ ____
ROOT
ATOM      1  C   UNL     1      19.089 -10.073   3.025  0.00  0.00    +0.000 C 
ATOM      2  C   UNL     1      19.308  -8.979   3.865  0.00  0.00    +0.000 C 
ATOM      3  N   UNL     1      20.319  -8.874   4.756  0.00  0.00    +0.000 NA
ATOM      4  C   UNL     1      21.175  -9.907   4.832  0.00  0.00    +0.000 C 
ATOM      5  C   UNL     1      21.052 -11.050   4.068  0.00  0.00    +0.000 C 
ATOM      6  C   UNL     1      19.993 -11.146   3.153  0.00  0.00    +0.000 C 
ENDROOT
BRANCH   1  12
ATOM      7  C   UNL     1      17.438  -8.677   1.616  0.00  0.00    +0.000 C 
ATOM      8  C   UNL     1      15.909  -8.671   1.822  0.00  0.00    +0.000 C 
ATOM      9  C   UNL     1      15.348  -7.278   2.072  0.00  0.00    +0.000 C 
ATOM     10  C   UNL     1      15.697  -9.605   3.007  0.00  0.00    +0.000 C 
ATOM     11  C   UNL     1      16.664 -10.744   2.723  0.00  0.00    +0.000 C 
ATOM     12  C   UNL     1      17.899 -10.088   2.072  0.00  0.00    +0.000 C 
BRANCH   7  13
ATOM     13  C   UNL     1      17.833  -8.407   0.163  0.00  0.00    +0.000 C 
ATOM     14  O   UNL     1      17.439  -9.115  -0.765  0.00  0.00    +0.000 OA
BRANCH  13  15
ATOM     15  C   UNL     1      18.729  -7.208  -0.096  0.00  0.00    +0.000 C 
BRANCH  15  17
ATOM     16  C   UNL     1      20.267  -6.193   1.647  0.00  0.00    +0.000 C 
ATOM     17  C   UNL     1      18.840  -6.296   1.124  0.00  0.00    +0.000 C 
ENDBRANCH  15  17
ENDBRANCH  13  15
ENDBRANCH   7  13
ENDBRANCH   1  12
BRANCH   6  18
ATOM     18  C   UNL     1      19.880 -12.364   2.364  0.00  0.00    +0.000 C 
ATOM     19  N   UNL     1      19.181 -13.447   2.634  0.00  0.00    +0.000 NA
ATOM     20  N   UNL     1      19.393 -14.316   1.591  0.00  0.00    +0.000 NA
ATOM     21  N   UNL     1      20.208 -13.786   0.690  0.00  0.00    +0.000 NA
ATOM     22  N   UNL     1      20.512 -12.572   1.168  0.00  0.00    +0.000 N 
ATOM     23  H   UNL     1      21.104 -11.924   0.724  0.00  0.00    +0.000 HD
ENDBRANCH   6  18
TORSDOF 5
ENDMDL
