MODEL 1
REMARK VINA RESULT:    -6.766      0.000      0.000
REMARK INTER + INTRA:          -9.803
REMARK INTER:                  -8.348
REMARK INTRA:                  -1.455
REMARK UNBOUND:                -1.455
REMARK  Name = ligantes_geracao2\Derivado_022.pdb
REMARK  7 active torsions:
REMARK  status: ('A' for Active; 'I' for Inactive)
REMARK    1  A    between atoms: C1_1  and  C2_2
REMARK    2  A    between atoms: C5_6  and  C6_7
REMARK    3  A    between atoms: C10_12  and  C11_13
REMARK    4  A    between atoms: C11_13  and  C12_15
REMARK    5  A    between atoms: C12_15  and  C13_16
REMARK    6  A    between atoms: C12_15  and  C14_17
REMARK    7  A    between atoms: C15_18  and  C16_19
REMARK                            x       y       z     vdW  Elec       q    Type
REMARK                         _______ _______ _______ _____ _____    ______ ____
ROOT
ATOM      1  C6  UNL     1      21.192  18.365  19.918  0.00  0.00    +0.000 C 
ATOM      2  C7  UNL     1      20.425  17.657  21.040  0.00  0.00    +0.000 C 
ATOM      3  C8  UNL     1      21.534  17.089  21.914  0.00  0.00    +0.000 C 
ATOM      4  C9  UNL     1      22.570  18.198  21.929  0.00  0.00    +0.000 C 
ATOM      5  F1  UNL     1      22.174  19.139  22.834  0.00  0.00    +0.000 F 
ATOM      6  C10 UNL     1      22.527  18.835  20.544  0.00  0.00    +0.000 C 
ENDROOT
BRANCH   1  12
ATOM      7  C1  UNL     1      18.890  20.568  15.823  0.00  0.00    +0.000 C 
ATOM      8  C2  UNL     1      19.321  20.493  17.265  0.00  0.00    +0.000 C 
ATOM      9  C3  UNL     1      19.002  21.550  18.113  0.00  0.00    +0.000 C 
ATOM     10  N1  UNL     1      19.329  21.603  19.411  0.00  0.00    +0.000 NA
ATOM     11  C4  UNL     1      20.020  20.557  19.903  0.00  0.00    +0.000 C 
ATOM     12  C5  UNL     1      20.430  19.439  19.163  0.00  0.00    +0.000 C 
ATOM     13  C15 UNL     1      20.081  19.424  17.794  0.00  0.00    +0.000 C 
BRANCH  13  14
ATOM     14  C16 UNL     1      20.491  18.321  16.908  0.00  0.00    +0.000 C 
ATOM     15  C17 UNL     1      19.776  17.200  16.762  0.00  0.00    +0.000 C 
ATOM     16  F2  UNL     1      18.619  16.996  17.417  0.00  0.00    +0.000 F 
ENDBRANCH  13  14
ENDBRANCH   1  12
BRANCH   6  17
ATOM     17  C11 UNL     1      23.750  18.377  19.752  0.00  0.00    +0.000 C 
ATOM     18  O1  UNL     1      24.779  18.002  20.317  0.00  0.00    +0.000 OA
BRANCH  17  19
ATOM     19  C12 UNL     1      23.656  18.464  18.226  0.00  0.00    +0.000 C 
ATOM     20  C13 UNL     1      23.813  19.910  17.752  0.00  0.00    +0.000 C 
ATOM     21  C14 UNL     1      24.708  17.569  17.576  0.00  0.00    +0.000 C 
ENDBRANCH  17  19
ENDBRANCH   6  17
TORSDOF 4
ENDMDL
MODEL 2
REMARK VINA RESULT:    -6.352     31.873     34.298
REMARK INTER + INTRA:          -9.292
REMARK INTER:                  -7.872
REMARK INTRA:                  -1.421
REMARK UNBOUND:                -1.455
REMARK  Name = ligantes_geracao2\Derivado_022.pdb
REMARK  7 active torsions:
REMARK  status: ('A' for Active; 'I' for Inactive)
REMARK    1  A    between atoms: C1_1  and  C2_2
REMARK    2  A    between atoms: C5_6  and  C6_7
REMARK    3  A    between atoms: C10_12  and  C11_13
REMARK    4  A    between atoms: C11_13  and  C12_15
REMARK    5  A    between atoms: C12_15  and  C13_16
REMARK    6  A    between atoms: C12_15  and  C14_17
REMARK    7  A    between atoms: C15_18  and  C16_19
REMARK                            x       y       z     vdW  Elec       q    Type
REMARK                         _______ _______ _______ _____ _____    ______ ____
ROOT
ATOM      1  C6  UNL     1      17.807 -10.593   2.918  0.00  0.00    +0.000 C 
ATOM      2  C7  UNL     1      16.286 -10.440   3.025  0.00  0.00    +0.000 C 
ATOM      3  C8  UNL     1      16.112  -9.000   3.485  0.00  0.00    +0.000 C 
ATOM      4  C9  UNL     1      17.159  -8.248   2.682  0.00  0.00    +0.000 C 
ATOM      5  F1  UNL     1      16.664  -8.035   1.429  0.00  0.00    +0.000 F 
ATOM      6  C10 UNL     1      18.352  -9.191   2.558  0.00  0.00    +0.000 C 
ENDROOT
BRANCH   1  12
ATOM      7  C1  UNL     1      20.105 -15.110   1.806  0.00  0.00    +0.000 C 
ATOM      8  C2  UNL     1      19.357 -13.844   1.473  0.00  0.00    +0.000 C 
ATOM      9  C3  UNL     1      19.029 -13.594   0.143  0.00  0.00    +0.000 C 
ATOM     10  N1  UNL     1      18.369 -12.507  -0.281  0.00  0.00    +0.000 NA
ATOM     11  C4  UNL     1      18.019 -11.608   0.660  0.00  0.00    +0.000 C 
ATOM     12  C5  UNL     1      18.304 -11.718   2.027  0.00  0.00    +0.000 C 
ATOM     13  C15 UNL     1      19.014 -12.868   2.437  0.00  0.00    +0.000 C 
BRANCH  13  14
ATOM     14  C16 UNL     1      19.404 -13.073   3.843  0.00  0.00    +0.000 C 
ATOM     15  C17 UNL     1      20.443 -12.451   4.408  0.00  0.00    +0.000 C 
ATOM     16  F2  UNL     1      21.216 -11.583   3.730  0.00  0.00    +0.000 F 
ENDBRANCH  13  14
ENDBRANCH   1  12
BRANCH   6  17
ATOM     17  C11 UNL     1      19.454  -8.719   3.505  0.00  0.00    +0.000 C 
ATOM     18  O1  UNL     1      19.348  -8.840   4.728  0.00  0.00    +0.000 OA
BRANCH  17  19
ATOM     19  C12 UNL     1      20.667  -8.037   2.867  0.00  0.00    +0.000 C 
ATOM     20  C13 UNL     1      20.434  -6.530   2.729  0.00  0.00    +0.000 C 
ATOM     21  C14 UNL     1      21.926  -8.311   3.687  0.00  0.00    +0.000 C 
ENDBRANCH  17  19
ENDBRANCH   6  17
TORSDOF 4
ENDMDL
MODEL 3
REMARK VINA RESULT:    -6.219     28.244     30.435
REMARK INTER + INTRA:          -9.128
REMARK INTER:                  -7.621
REMARK INTRA:                  -1.507
REMARK UNBOUND:                -1.455
REMARK  Name = ligantes_geracao2\Derivado_022.pdb
REMARK  7 active torsions:
REMARK  status: ('A' for Active; 'I' for Inactive)
REMARK    1  A    between atoms: C1_1  and  C2_2
REMARK    2  A    between atoms: C5_6  and  C6_7
REMARK    3  A    between atoms: C10_12  and  C11_13
REMARK    4  A    between atoms: C11_13  and  C12_15
REMARK    5  A    between atoms: C12_15  and  C13_16
REMARK    6  A    between atoms: C12_15  and  C14_17
REMARK    7  A    between atoms: C15_18  and  C16_19
REMARK                            x       y       z     vdW  Elec       q    Type
REMARK                         _______ _______ _______ _____ _____    ______ ____
ROOT
ATOM      1  C6  UNL     1      16.529  -6.157   1.083  0.00  0.00    +0.000 C 
ATOM      2  C7  UNL     1      15.333  -7.108   1.196  0.00  0.00    +0.000 C 
ATOM      3  C8  UNL     1      15.986  -8.472   1.368  0.00  0.00    +0.000 C 
ATOM      4  C9  UNL     1      17.153  -8.186   2.295  0.00  0.00    +0.000 C 
ATOM      5  F1  UNL     1      16.676  -8.120   3.572  0.00  0.00    +0.000 F 
ATOM      6  C10 UNL     1      17.664  -6.800   1.916  0.00  0.00    +0.000 C 
ENDROOT
BRANCH   1  12
ATOM      7  C1  UNL     1      15.747  -1.136   0.037  0.00  0.00    +0.000 C 
ATOM      8  C2  UNL     1      15.863  -2.337   0.941  0.00  0.00    +0.000 C 
ATOM      9  C3  UNL     1      15.702  -2.157   2.312  0.00  0.00    +0.000 C 
ATOM     10  N1  UNL     1      15.783  -3.141   3.218  0.00  0.00    +0.000 NA
ATOM     11  C4  UNL     1      16.047  -4.376   2.747  0.00  0.00    +0.000 C 
ATOM     12  C5  UNL     1      16.255  -4.698   1.399  0.00  0.00    +0.000 C 
ATOM     13  C15 UNL     1      16.178  -3.634   0.473  0.00  0.00    +0.000 C 
BRANCH  13  14
ATOM     14  C16 UNL     1      16.418  -3.845  -0.965  0.00  0.00    +0.000 C 
ATOM     15  C17 UNL     1      17.632  -4.077  -1.474  0.00  0.00    +0.000 C 
ATOM     16  F2  UNL     1      18.734  -4.137  -0.705  0.00  0.00    +0.000 F 
ENDBRANCH  13  14
ENDBRANCH   1  12
BRANCH   6  17
ATOM     17  C11 UNL     1      18.966  -6.952   1.132  0.00  0.00    +0.000 C 
ATOM     18  O1  UNL     1      18.998  -7.527   0.042  0.00  0.00    +0.000 OA
BRANCH  17  19
ATOM     19  C12 UNL     1      20.236  -6.408   1.791  0.00  0.00    +0.000 C 
ATOM     20  C13 UNL     1      20.069  -4.932   2.162  0.00  0.00    +0.000 C 
ATOM     21  C14 UNL     1      20.592  -7.234   3.025  0.00  0.00    +0.000 C 
ENDBRANCH  17  19
ENDBRANCH   6  17
TORSDOF 4
ENDMDL
MODEL 4
REMARK VINA RESULT:    -6.197     28.865     30.802
REMARK INTER + INTRA:          -9.102
REMARK INTER:                  -7.520
REMARK INTRA:                  -1.581
REMARK UNBOUND:                -1.455
REMARK  Name = ligantes_geracao2\Derivado_022.pdb
REMARK  7 active torsions:
REMARK  status: ('A' for Active; 'I' for Inactive)
REMARK    1  A    between atoms: C1_1  and  C2_2
REMARK    2  A    between atoms: C5_6  and  C6_7
REMARK    3  A    between atoms: C10_12  and  C11_13
REMARK    4  A    between atoms: C11_13  and  C12_15
REMARK    5  A    between atoms: C12_15  and  C13_16
REMARK    6  A    between atoms: C12_15  and  C14_17
REMARK    7  A    between atoms: C15_18  and  C16_19
REMARK                            x       y       z     vdW  Elec       q    Type
REMARK                         _______ _______ _______ _____ _____    ______ ____
ROOT
ATOM      1  C6  UNL     1      17.636  -5.978   1.467  0.00  0.00    +0.000 C 
ATOM      2  C7  UNL     1      18.546  -6.845   2.344  0.00  0.00    +0.000 C 
ATOM      3  C8  UNL     1      19.872  -6.823   1.598  0.00  0.00    +0.000 C 
ATOM      4  C9  UNL     1      19.982  -5.387   1.122  0.00  0.00    +0.000 C 
ATOM      5  F1  UNL     1      20.419  -4.623   2.166  0.00  0.00    +0.000 F 
ATOM      6  C10 UNL     1      18.562  -4.944   0.783  0.00  0.00    +0.000 C 
ENDROOT
BRANCH   1  12
ATOM      7  C1  UNL     1      12.814  -5.944   3.383  0.00  0.00    +0.000 C 
ATOM      8  C2  UNL     1      14.163  -5.343   3.079  0.00  0.00    +0.000 C 
ATOM      9  C3  UNL     1      14.408  -4.027   3.459  0.00  0.00    +0.000 C 
ATOM     10  N1  UNL     1      15.562  -3.380   3.245  0.00  0.00    +0.000 NA
ATOM     11  C4  UNL     1      16.531  -4.068   2.610  0.00  0.00    +0.000 C 
ATOM     12  C5  UNL     1      16.416  -5.387   2.150  0.00  0.00    +0.000 C 
ATOM     13  C15 UNL     1      15.181  -6.033   2.379  0.00  0.00    +0.000 C 
BRANCH  13  14
ATOM     14  C16 UNL     1      14.930  -7.405   1.906  0.00  0.00    +0.000 C 
ATOM     15  C17 UNL     1      15.204  -8.489   2.639  0.00  0.00    +0.000 C 
ATOM     16  F2  UNL     1      15.731  -8.407   3.874  0.00  0.00    +0.000 F 
ENDBRANCH  13  14
ENDBRANCH   1  12
BRANCH   6  17
ATOM     17  C11 UNL     1      18.403  -4.914  -0.736  0.00  0.00    +0.000 C 
ATOM     18  O1  UNL     1      18.969  -4.063  -1.425  0.00  0.00    +0.000 OA
BRANCH  17  19
ATOM     19  C12 UNL     1      17.463  -5.953  -1.352  0.00  0.00    +0.000 C 
ATOM     20  C13 UNL     1      16.128  -5.315  -1.743  0.00  0.00    +0.000 C 
ATOM     21  C14 UNL     1      18.118  -6.613  -2.563  0.00  0.00    +0.000 C 
ENDBRANCH  17  19
ENDBRANCH   6  17
TORSDOF 4
ENDMDL
MODEL 5
REMARK VINA RESULT:    -6.136     25.040     27.107
REMARK INTER + INTRA:          -9.026
REMARK INTER:                  -7.483
REMARK INTRA:                  -1.544
REMARK UNBOUND:                -1.455
REMARK  Name = ligantes_geracao2\Derivado_022.pdb
REMARK  7 active torsions:
REMARK  status: ('A' for Active; 'I' for Inactive)
REMARK    1  A    between atoms: C1_1  and  C2_2
REMARK    2  A    between atoms: C5_6  and  C6_7
REMARK    3  A    between atoms: C10_12  and  C11_13
REMARK    4  A    between atoms: C11_13  and  C12_15
REMARK    5  A    between atoms: C12_15  and  C13_16
REMARK    6  A    between atoms: C12_15  and  C14_17
REMARK    7  A    between atoms: C15_18  and  C16_19
REMARK                            x       y       z     vdW  Elec       q    Type
REMARK                         _______ _______ _______ _____ _____    ______ ____
ROOT
ATOM      1  C6  UNL     1       1.738   0.742  19.177  0.00  0.00    +0.000 C 
ATOM      2  C7  UNL     1       2.153   0.734  17.702  0.00  0.00    +0.000 C 
ATOM      3  C8  UNL     1       1.595  -0.585  17.189  0.00  0.00    +0.000 C 
ATOM      4  C9  UNL     1       0.241  -0.679  17.868  0.00  0.00    +0.000 C 
ATOM      5  F1  UNL     1      -0.639   0.100  17.176  0.00  0.00    +0.000 F 
ATOM      6  C10 UNL     1       0.419  -0.064  19.253  0.00  0.00    +0.000 C 
ENDROOT
BRANCH   1  12
ATOM      7  C1  UNL     1       3.402   4.572  22.256  0.00  0.00    +0.000 C 
ATOM      8  C2  UNL     1       2.458   3.927  21.273  0.00  0.00    +0.000 C 
ATOM      9  C3  UNL     1       1.332   4.638  20.866  0.00  0.00    +0.000 C 
ATOM     10  N1  UNL     1       0.419   4.175  20.000  0.00  0.00    +0.000 NA
ATOM     11  C4  UNL     1       0.622   2.936  19.513  0.00  0.00    +0.000 C 
ATOM     12  C5  UNL     1       1.694   2.100  19.852  0.00  0.00    +0.000 C 
ATOM     13  C15 UNL     1       2.629   2.613  20.778  0.00  0.00    +0.000 C 
BRANCH  13  14
ATOM     14  C16 UNL     1       3.776   1.811  21.240  0.00  0.00    +0.000 C 
ATOM     15  C17 UNL     1       3.743   1.064  22.347  0.00  0.00    +0.000 C 
ATOM     16  F2  UNL     1       2.651   0.986  23.129  0.00  0.00    +0.000 F 
ENDBRANCH  13  14
ENDBRANCH   1  12
BRANCH   6  17
ATOM     17  C11 UNL     1       0.465  -1.185  20.289  0.00  0.00    +0.000 C 
ATOM     18  O1  UNL     1      -0.548  -1.543  20.895  0.00  0.00    +0.000 OA
BRANCH  17  19
ATOM     19  C12 UNL     1       1.835  -1.800  20.581  0.00  0.00    +0.000 C 
ATOM     20  C13 UNL     1       1.988  -2.107  22.073  0.00  0.00    +0.000 C 
ATOM     21  C14 UNL     1       2.040  -3.065  19.751  0.00  0.00    +0.000 C 
ENDBRANCH  17  19
ENDBRANCH   6  17
TORSDOF 4
ENDMDL
MODEL 6
REMARK VINA RESULT:    -6.067     30.130     32.627
REMARK INTER + INTRA:          -8.941
REMARK INTER:                  -7.351
REMARK INTRA:                  -1.590
REMARK UNBOUND:                -1.455
REMARK  Name = ligantes_geracao2\Derivado_022.pdb
REMARK  7 active torsions:
REMARK  status: ('A' for Active; 'I' for Inactive)
REMARK    1  A    between atoms: C1_1  and  C2_2
REMARK    2  A    between atoms: C5_6  and  C6_7
REMARK    3  A    between atoms: C10_12  and  C11_13
REMARK    4  A    between atoms: C11_13  and  C12_15
REMARK    5  A    between atoms: C12_15  and  C13_16
REMARK    6  A    between atoms: C12_15  and  C14_17
REMARK    7  A    between atoms: C15_18  and  C16_19
REMARK                            x       y       z     vdW  Elec       q    Type
REMARK                         _______ _______ _______ _____ _____    ______ ____
ROOT
ATOM      1  C6  UNL     1      17.456  -8.328   2.618  0.00  0.00    +0.000 C 
ATOM      2  C7  UNL     1      16.105  -8.418   3.336  0.00  0.00    +0.000 C 
ATOM      3  C8  UNL     1      15.261  -7.371   2.623  0.00  0.00    +0.000 C 
ATOM      4  C9  UNL     1      15.655  -7.537   1.167  0.00  0.00    +0.000 C 
ATOM      5  F1  UNL     1      14.974  -8.606   0.660  0.00  0.00    +0.000 F 
ATOM      6  C10 UNL     1      17.139  -7.888   1.168  0.00  0.00    +0.000 C 
ENDROOT
BRANCH   1  12
ATOM      7  C1  UNL     1      21.401 -11.165   4.437  0.00  0.00    +0.000 C 
ATOM      8  C2  UNL     1      20.186 -10.913   3.580  0.00  0.00    +0.000 C 
ATOM      9  C3  UNL     1      19.754 -11.920   2.722  0.00  0.00    +0.000 C 
ATOM     10  N1  UNL     1      18.692 -11.818   1.911  0.00  0.00    +0.000 NA
ATOM     11  C4  UNL     1      18.021 -10.650   1.939  0.00  0.00    +0.000 C 
ATOM     12  C5  UNL     1      18.356  -9.545   2.732  0.00  0.00    +0.000 C 
ATOM     13  C15 UNL     1      19.489  -9.682   3.563  0.00  0.00    +0.000 C 
BRANCH  13  14
ATOM     14  C16 UNL     1      19.960  -8.573   4.412  0.00  0.00    +0.000 C 
ATOM     15  C17 UNL     1      20.905  -7.711   4.025  0.00  0.00    +0.000 C 
ATOM     16  F2  UNL     1      21.500  -7.790   2.821  0.00  0.00    +0.000 F 
ENDBRANCH  13  14
ENDBRANCH   1  12
BRANCH   6  17
ATOM     17  C11 UNL     1      17.937  -6.661   0.730  0.00  0.00    +0.000 C 
ATOM     18  O1  UNL     1      18.241  -6.479  -0.451  0.00  0.00    +0.000 OA
BRANCH  17  19
ATOM     19  C12 UNL     1      18.391  -5.702   1.834  0.00  0.00    +0.000 C 
ATOM     20  C13 UNL     1      19.832  -5.244   1.599  0.00  0.00    +0.000 C 
ATOM     21  C14 UNL     1      17.453  -4.500   1.915  0.00  0.00    +0.000 C 
ENDBRANCH  17  19
ENDBRANCH   6  17
TORSDOF 4
ENDMDL
MODEL 7
REMARK VINA RESULT:    -6.063     26.282     28.329
REMARK INTER + INTRA:          -8.935
REMARK INTER:                  -7.725
REMARK INTRA:                  -1.211
REMARK UNBOUND:                -1.455
REMARK  Name = ligantes_geracao2\Derivado_022.pdb
REMARK  7 active torsions:
REMARK  status: ('A' for Active; 'I' for Inactive)
REMARK    1  A    between atoms: C1_1  and  C2_2
REMARK    2  A    between atoms: C5_6  and  C6_7
REMARK    3  A    between atoms: C10_12  and  C11_13
REMARK    4  A    between atoms: C11_13  and  C12_15
REMARK    5  A    between atoms: C12_15  and  C13_16
REMARK    6  A    between atoms: C12_15  and  C14_17
REMARK    7  A    between atoms: C15_18  and  C16_19
REMARK                            x       y       z     vdW  Elec       q    Type
REMARK                         _______ _______ _______ _____ _____    ______ ____
ROOT
ATOM      1  C6  UNL     1       0.916  -1.140  19.004  0.00  0.00    +0.000 C 
ATOM      2  C7  UNL     1      -0.553  -1.291  19.416  0.00  0.00    +0.000 C 
ATOM      3  C8  UNL     1      -0.873  -2.731  19.044  0.00  0.00    +0.000 C 
ATOM      4  C9  UNL     1       0.382  -3.483  19.448  0.00  0.00    +0.000 C 
ATOM      5  F1  UNL     1       0.338  -3.694  20.796  0.00  0.00    +0.000 F 
ATOM      6  C10 UNL     1       1.548  -2.543  19.162  0.00  0.00    +0.000 C 
ENDROOT
BRANCH   1  12
ATOM      7  C1  UNL     1       2.961   1.517  22.964  0.00  0.00    +0.000 C 
ATOM      8  C2  UNL     1       2.677   1.245  21.509  0.00  0.00    +0.000 C 
ATOM      9  C3  UNL     1       3.172   2.131  20.555  0.00  0.00    +0.000 C 
ATOM     10  N1  UNL     1       2.987   2.001  19.235  0.00  0.00    +0.000 NA
ATOM     11  C4  UNL     1       2.263   0.940  18.827  0.00  0.00    +0.000 C 
ATOM     12  C5  UNL     1       1.685  -0.015  19.673  0.00  0.00    +0.000 C 
ATOM     13  C15 UNL     1       1.887   0.161  21.060  0.00  0.00    +0.000 C 
BRANCH  13  14
ATOM     14  C16 UNL     1       1.295  -0.758  22.048  0.00  0.00    +0.000 C 
ATOM     15  C17 UNL     1       1.937  -1.830  22.522  0.00  0.00    +0.000 C 
ATOM     16  F2  UNL     1       3.183  -2.151  22.131  0.00  0.00    +0.000 F 
ENDBRANCH  13  14
ENDBRANCH   1  12
BRANCH   6  17
ATOM     17  C11 UNL     1       2.267  -3.017  17.900  0.00  0.00    +0.000 C 
ATOM     18  O1  UNL     1       2.958  -4.039  17.898  0.00  0.00    +0.000 OA
BRANCH  17  19
ATOM     19  C12 UNL     1       2.136  -2.133  16.657  0.00  0.00    +0.000 C 
ATOM     20  C13 UNL     1       3.508  -1.637  16.195  0.00  0.00    +0.000 C 
ATOM     21  C14 UNL     1       1.435  -2.893  15.534  0.00  0.00    +0.000 C 
ENDBRANCH  17  19
ENDBRANCH   6  17
TORSDOF 4
ENDMDL
MODEL 8
REMARK VINA RESULT:    -6.001     28.246     30.975
REMARK INTER + INTRA:          -8.860
REMARK INTER:                  -7.491
REMARK INTRA:                  -1.369
REMARK UNBOUND:                -1.455
REMARK  Name = ligantes_geracao2\Derivado_022.pdb
REMARK  7 active torsions:
REMARK  status: ('A' for Active; 'I' for Inactive)
REMARK    1  A    between atoms: C1_1  and  C2_2
REMARK    2  A    between atoms: C5_6  and  C6_7
REMARK    3  A    between atoms: C10_12  and  C11_13
REMARK    4  A    between atoms: C11_13  and  C12_15
REMARK    5  A    between atoms: C12_15  and  C13_16
REMARK    6  A    between atoms: C12_15  and  C14_17
REMARK    7  A    between atoms: C15_18  and  C16_19
REMARK                            x       y       z     vdW  Elec       q    Type
REMARK                         _______ _______ _______ _____ _____    ______ ____
ROOT
ATOM      1  C6  UNL     1      16.936  -5.823   0.662  0.00  0.00    +0.000 C 
ATOM      2  C7  UNL     1      16.723  -6.463  -0.714  0.00  0.00    +0.000 C 
ATOM      3  C8  UNL     1      15.999  -5.377  -1.496  0.00  0.00    +0.000 C 
ATOM      4  C9  UNL     1      16.703  -4.105  -1.061  0.00  0.00    +0.000 C 
ATOM      5  F1  UNL     1      17.869  -4.001  -1.763  0.00  0.00    +0.000 F 
ATOM      6  C10 UNL     1      17.060  -4.302   0.409  0.00  0.00    +0.000 C 
ENDROOT
BRANCH   1  12
ATOM      7  C1  UNL     1      19.225  -9.385   3.660  0.00  0.00    +0.000 C 
ATOM      8  C2  UNL     1      19.154  -8.082   2.906  0.00  0.00    +0.000 C 
ATOM      9  C3  UNL     1      20.252  -7.227   2.948  0.00  0.00    +0.000 C 
ATOM     10  N1  UNL     1      20.312  -6.043   2.323  0.00  0.00    +0.000 NA
ATOM     11  C4  UNL     1      19.222  -5.674   1.622  0.00  0.00    +0.000 C 
ATOM     12  C5  UNL     1      18.041  -6.421   1.512  0.00  0.00    +0.000 C 
ATOM     13  C15 UNL     1      18.007  -7.656   2.196  0.00  0.00    +0.000 C 
BRANCH  13  14
ATOM     14  C16 UNL     1      16.806  -8.508   2.186  0.00  0.00    +0.000 C 
ATOM     15  C17 UNL     1      15.764  -8.307   2.999  0.00  0.00    +0.000 C 
ATOM     16  F2  UNL     1      15.733  -7.302   3.892  0.00  0.00    +0.000 F 
ENDBRANCH  13  14
ENDBRANCH   1  12
BRANCH   6  17
ATOM     17  C11 UNL     1      16.102  -3.475   1.265  0.00  0.00    +0.000 C 
ATOM     18  O1  UNL     1      15.263  -2.730   0.754  0.00  0.00    +0.000 OA
BRANCH  17  19
ATOM     19  C12 UNL     1      16.273  -3.573   2.783  0.00  0.00    +0.000 C 
ATOM     20  C13 UNL     1      16.675  -2.219   3.373  0.00  0.00    +0.000 C 
ATOM     21  C14 UNL     1      14.988  -4.080   3.433  0.00  0.00    +0.000 C 
ENDBRANCH  17  19
ENDBRANCH   6  17
TORSDOF 4
ENDMDL
MODEL 9
REMARK VINA RESULT:    -5.913     25.742     27.723
REMARK INTER + INTRA:          -8.751
REMARK INTER:                  -7.018
REMARK INTRA:                  -1.733
REMARK UNBOUND:                -1.455
REMARK  Name = ligantes_geracao2\Derivado_022.pdb
REMARK  7 active torsions:
REMARK  status: ('A' for Active; 'I' for Inactive)
REMARK    1  A    between atoms: C1_1  and  C2_2
REMARK    2  A    between atoms: C5_6  and  C6_7
REMARK    3  A    between atoms: C10_12  and  C11_13
REMARK    4  A    between atoms: C11_13  and  C12_15
REMARK    5  A    between atoms: C12_15  and  C13_16
REMARK    6  A    between atoms: C12_15  and  C14_17
REMARK    7  A    between atoms: C15_18  and  C16_19
REMARK                            x       y       z     vdW  Elec       q    Type
REMARK                         _______ _______ _______ _____ _____    ______ ____
ROOT
ATOM      1  C6  UNL     1       0.845  -0.625  20.220  0.00  0.00    +0.000 C 
ATOM      2  C7  UNL     1      -0.533  -0.783  20.871  0.00  0.00    +0.000 C 
ATOM      3  C8  UNL     1      -0.983  -2.160  20.406  0.00  0.00    +0.000 C 
ATOM      4  C9  UNL     1       0.285  -2.989  20.489  0.00  0.00    +0.000 C 
ATOM      5  F1  UNL     1       0.470  -3.357  21.790  0.00  0.00    +0.000 F 
ATOM      6  C10 UNL     1       1.427  -2.054  20.102  0.00  0.00    +0.000 C 
ENDROOT
BRANCH   1  12
ATOM      7  C1  UNL     1       2.922   4.058  21.039  0.00  0.00    +0.000 C 
ATOM      8  C2  UNL     1       2.756   2.580  21.284  0.00  0.00    +0.000 C 
ATOM      9  C3  UNL     1       3.556   1.970  22.248  0.00  0.00    +0.000 C 
ATOM     10  N1  UNL     1       3.506   0.667  22.557  0.00  0.00    +0.000 NA
ATOM     11  C4  UNL     1       2.622  -0.083  21.870  0.00  0.00    +0.000 C 
ATOM     12  C5  UNL     1       1.774   0.390  20.860  0.00  0.00    +0.000 C 
ATOM     13  C15 UNL     1       1.864   1.765  20.549  0.00  0.00    +0.000 C 
BRANCH  13  14
ATOM     14  C16 UNL     1       1.051   2.368  19.479  0.00  0.00    +0.000 C 
ATOM     15  C17 UNL     1       1.452   2.427  18.205  0.00  0.00    +0.000 C 
ATOM     16  F2  UNL     1       2.637   1.934  17.802  0.00  0.00    +0.000 F 
ENDBRANCH  13  14
ENDBRANCH   1  12
BRANCH   6  17
ATOM     17  C11 UNL     1       1.887  -2.396  18.686  0.00  0.00    +0.000 C 
ATOM     18  O1  UNL     1       2.568  -3.397  18.455  0.00  0.00    +0.000 OA
BRANCH  17  19
ATOM     19  C12 UNL     1       1.512  -1.405  17.581  0.00  0.00    +0.000 C 
ATOM     20  C13 UNL     1       2.689  -1.182  16.629  0.00  0.00    +0.000 C 
ATOM     21  C14 UNL     1       0.289  -1.900  16.814  0.00  0.00    +0.000 C 
ENDBRANCH  17  19
ENDBRANCH   6  17
TORSDOF 4
ENDMDL
