MODEL 1
REMARK VINA RESULT:    -5.440      0.000      0.000
REMARK INTER + INTRA:          -7.642
REMARK INTER:                  -6.712
REMARK INTRA:                  -0.930
REMARK UNBOUND:                -0.930
REMARK  Name = ligantes_geracao2\Derivado_016.pdb
REMARK  6 active torsions:
REMARK  status: ('A' for Active; 'I' for Inactive)
REMARK    1  A    between atoms: C1_1  and  C2_2
REMARK    2  A    between atoms: C2_2  and  C3_3
REMARK    3  A    between atoms: C3_3  and  C4_5
REMARK    4  A    between atoms: C5_6  and  C6_7
REMARK    5  A    between atoms: C9_10  and  C10_11
REMARK    6  A    between atoms: C14_16  and  C15_17
REMARK                            x       y       z     vdW  Elec       q    Type
REMARK                         _______ _______ _______ _____ _____    ______ ____
ROOT
ATOM      1  C4  UNL     1       2.246   3.984  20.623  0.00  0.00    +0.000 C 
ATOM      2  C5  UNL     1       1.601   5.342  20.932  0.00  0.00    +0.000 C 
ATOM      3  C6  UNL     1       2.593   6.497  20.918  0.00  0.00    +0.000 C 
ATOM      4  C7  UNL     1       0.542   5.471  19.839  0.00  0.00    +0.000 C 
ATOM      5  C8  UNL     1      -0.031   4.065  19.688  0.00  0.00    +0.000 C 
ATOM      6  C9  UNL     1       1.053   3.097  20.205  0.00  0.00    +0.000 C 
ENDROOT
BRANCH   6   7
ATOM      7  C10 UNL     1       1.390   1.960  19.260  0.00  0.00    +0.000 C 
ATOM      8  C11 UNL     1       1.968   2.277  18.028  0.00  0.00    +0.000 C 
ATOM      9  N1  UNL     1       2.334   1.376  17.088  0.00  0.00    +0.000 NA
ATOM     10  C12 UNL     1       2.104   0.080  17.361  0.00  0.00    +0.000 C 
ATOM     11  C13 UNL     1       1.532  -0.357  18.539  0.00  0.00    +0.000 C 
ATOM     12  C14 UNL     1       1.172   0.593  19.503  0.00  0.00    +0.000 C 
BRANCH  12  13
ATOM     13  C15 UNL     1       0.592   0.102  20.719  0.00  0.00    +0.000 C 
ATOM     14  N2  UNL     1       0.129  -0.306  21.702  0.00  0.00    +0.000 NA
ENDBRANCH  12  13
ENDBRANCH   6   7
BRANCH   1  15
ATOM     15  C3  UNL     1       3.024   3.345  21.771  0.00  0.00    +0.000 C 
ATOM     16  O1  UNL     1       2.842   3.748  22.923  0.00  0.00    +0.000 OA
BRANCH  15  18
ATOM     17  C1  UNL     1       3.772   0.969  22.193  0.00  0.00    +0.000 C 
ATOM     18  C2  UNL     1       4.051   2.269  21.458  0.00  0.00    +0.000 C 
ENDBRANCH  15  18
ENDBRANCH   1  15
TORSDOF 4
ENDMDL
MODEL 2
REMARK VINA RESULT:    -5.418      2.342      4.745
REMARK INTER + INTRA:          -7.614
REMARK INTER:                  -6.519
REMARK INTRA:                  -1.095
REMARK UNBOUND:                -0.930
REMARK  Name = ligantes_geracao2\Derivado_016.pdb
REMARK  6 active torsions:
REMARK  status: ('A' for Active; 'I' for Inactive)
REMARK    1  A    between atoms: C1_1  and  C2_2
REMARK    2  A    between atoms: C2_2  and  C3_3
REMARK    3  A    between atoms: C3_3  and  C4_5
REMARK    4  A    between atoms: C5_6  and  C6_7
REMARK    5  A    between atoms: C9_10  and  C10_11
REMARK    6  A    between atoms: C14_16  and  C15_17
REMARK                            x       y       z     vdW  Elec       q    Type
REMARK                         _______ _______ _______ _____ _____    ______ ____
ROOT
ATOM      1  C4  UNL     1       1.582   1.501  19.585  0.00  0.00    +0.000 C 
ATOM      2  C5  UNL     1       2.197   0.739  18.404  0.00  0.00    +0.000 C 
ATOM      3  C6  UNL     1       1.718  -0.703  18.302  0.00  0.00    +0.000 C 
ATOM      4  C7  UNL     1       1.773   1.579  17.200  0.00  0.00    +0.000 C 
ATOM      5  C8  UNL     1       1.897   3.024  17.675  0.00  0.00    +0.000 C 
ATOM      6  C9  UNL     1       1.791   2.985  19.213  0.00  0.00    +0.000 C 
ENDROOT
BRANCH   6   7
ATOM      7  C10 UNL     1       0.779   3.950  19.803  0.00  0.00    +0.000 C 
ATOM      8  C11 UNL     1      -0.578   3.688  19.599  0.00  0.00    +0.000 C 
ATOM      9  N1  UNL     1      -1.594   4.445  20.070  0.00  0.00    +0.000 NA
ATOM     10  C12 UNL     1      -1.263   5.543  20.772  0.00  0.00    +0.000 C 
ATOM     11  C13 UNL     1       0.041   5.912  21.033  0.00  0.00    +0.000 C 
ATOM     12  C14 UNL     1       1.076   5.105  20.545  0.00  0.00    +0.000 C 
BRANCH  12  13
ATOM     13  C15 UNL     1       2.419   5.513  20.846  0.00  0.00    +0.000 C 
ATOM     14  N2  UNL     1       3.508   5.832  21.086  0.00  0.00    +0.000 NA
ENDBRANCH  12  13
ENDBRANCH   6   7
BRANCH   1  15
ATOM     15  C3  UNL     1       2.182   1.193  20.955  0.00  0.00    +0.000 C 
ATOM     16  O1  UNL     1       1.559   0.473  21.740  0.00  0.00    +0.000 OA
BRANCH  15  18
ATOM     17  C1  UNL     1       3.480   2.416  22.744  0.00  0.00    +0.000 C 
ATOM     18  C2  UNL     1       3.505   1.833  21.342  0.00  0.00    +0.000 C 
ENDBRANCH  15  18
ENDBRANCH   1  15
TORSDOF 4
ENDMDL
MODEL 3
REMARK VINA RESULT:    -5.408     23.709     25.840
REMARK INTER + INTRA:          -7.602
REMARK INTER:                  -6.446
REMARK INTRA:                  -1.157
REMARK UNBOUND:                -0.930
REMARK  Name = ligantes_geracao2\Derivado_016.pdb
REMARK  6 active torsions:
REMARK  status: ('A' for Active; 'I' for Inactive)
REMARK    1  A    between atoms: C1_1  and  C2_2
REMARK    2  A    between atoms: C2_2  and  C3_3
REMARK    3  A    between atoms: C3_3  and  C4_5
REMARK    4  A    between atoms: C5_6  and  C6_7
REMARK    5  A    between atoms: C9_10  and  C10_11
REMARK    6  A    between atoms: C14_16  and  C15_17
REMARK                            x       y       z     vdW  Elec       q    Type
REMARK                         _______ _______ _______ _____ _____    ______ ____
ROOT
ATOM      1  C4  UNL     1      17.782  -7.008   2.210  0.00  0.00    +0.000 C 
ATOM      2  C5  UNL     1      17.509  -8.423   2.739  0.00  0.00    +0.000 C 
ATOM      3  C6  UNL     1      18.552  -8.904   3.738  0.00  0.00    +0.000 C 
ATOM      4  C7  UNL     1      16.122  -8.289   3.365  0.00  0.00    +0.000 C 
ATOM      5  C8  UNL     1      15.355  -7.375   2.414  0.00  0.00    +0.000 C 
ATOM      6  C9  UNL     1      16.416  -6.555   1.651  0.00  0.00    +0.000 C 
ENDROOT
BRANCH   6   7
ATOM      7  C10 UNL     1      16.179  -5.056   1.653  0.00  0.00    +0.000 C 
ATOM      8  C11 UNL     1      15.884  -4.438   2.870  0.00  0.00    +0.000 C 
ATOM      9  N1  UNL     1      15.661  -3.114   3.034  0.00  0.00    +0.000 NA
ATOM     10  C12 UNL     1      15.711  -2.345   1.932  0.00  0.00    +0.000 C 
ATOM     11  C13 UNL     1      15.987  -2.841   0.674  0.00  0.00    +0.000 C 
ATOM     12  C14 UNL     1      16.226  -4.212   0.530  0.00  0.00    +0.000 C 
BRANCH  12  13
ATOM     13  C15 UNL     1      16.520  -4.689  -0.790  0.00  0.00    +0.000 C 
ATOM     14  N2  UNL     1      16.746  -5.077  -1.860  0.00  0.00    +0.000 NA
ENDBRANCH  12  13
ENDBRANCH   6   7
BRANCH   1  15
ATOM     15  C3  UNL     1      18.870  -6.900   1.144  0.00  0.00    +0.000 C 
ATOM     16  O1  UNL     1      18.710  -7.463   0.058  0.00  0.00    +0.000 OA
BRANCH  15  18
ATOM     17  C1  UNL     1      19.887  -4.824   2.164  0.00  0.00    +0.000 C 
ATOM     18  C2  UNL     1      20.151  -6.150   1.470  0.00  0.00    +0.000 C 
ENDBRANCH  15  18
ENDBRANCH   1  15
TORSDOF 4
ENDMDL
MODEL 4
REMARK VINA RESULT:    -5.360      2.336      4.136
REMARK INTER + INTRA:          -7.543
REMARK INTER:                  -6.618
REMARK INTRA:                  -0.925
REMARK UNBOUND:                -0.930
REMARK  Name = ligantes_geracao2\Derivado_016.pdb
REMARK  6 active torsions:
REMARK  status: ('A' for Active; 'I' for Inactive)
REMARK    1  A    between atoms: C1_1  and  C2_2
REMARK    2  A    between atoms: C2_2  and  C3_3
REMARK    3  A    between atoms: C3_3  and  C4_5
REMARK    4  A    between atoms: C5_6  and  C6_7
REMARK    5  A    between atoms: C9_10  and  C10_11
REMARK    6  A    between atoms: C14_16  and  C15_17
REMARK                            x       y       z     vdW  Elec       q    Type
REMARK                         _______ _______ _______ _____ _____    ______ ____
ROOT
ATOM      1  C4  UNL     1       2.214   1.705  20.604  0.00  0.00    +0.000 C 
ATOM      2  C5  UNL     1       3.404   2.045  21.512  0.00  0.00    +0.000 C 
ATOM      3  C6  UNL     1       3.419   3.499  21.964  0.00  0.00    +0.000 C 
ATOM      4  C7  UNL     1       3.228   1.076  22.679  0.00  0.00    +0.000 C 
ATOM      5  C8  UNL     1       2.761  -0.226  22.032  0.00  0.00    +0.000 C 
ATOM      6  C9  UNL     1       2.119   0.166  20.685  0.00  0.00    +0.000 C 
ENDROOT
BRANCH   6   7
ATOM      7  C10 UNL     1       0.736  -0.411  20.452  0.00  0.00    +0.000 C 
ATOM      8  C11 UNL     1      -0.370   0.359  20.821  0.00  0.00    +0.000 C 
ATOM      9  N1  UNL     1      -1.661  -0.013  20.665  0.00  0.00    +0.000 NA
ATOM     10  C12 UNL     1      -1.888  -1.225  20.130  0.00  0.00    +0.000 C 
ATOM     11  C13 UNL     1      -0.879  -2.079  19.733  0.00  0.00    +0.000 C 
ATOM     12  C14 UNL     1       0.450  -1.668  19.893  0.00  0.00    +0.000 C 
BRANCH  12  13
ATOM     13  C15 UNL     1       1.471  -2.577  19.459  0.00  0.00    +0.000 C 
ATOM     14  N2  UNL     1       2.305  -3.308  19.116  0.00  0.00    +0.000 NA
ENDBRANCH  12  13
ENDBRANCH   6   7
BRANCH   1  15
ATOM     15  C3  UNL     1       2.336   2.167  19.154  0.00  0.00    +0.000 C 
ATOM     16  O1  UNL     1       2.986   1.487  18.355  0.00  0.00    +0.000 OA
BRANCH  15  18
ATOM     17  C1  UNL     1       0.485   3.832  19.581  0.00  0.00    +0.000 C 
ATOM     18  C2  UNL     1       1.704   3.487  18.743  0.00  0.00    +0.000 C 
ENDBRANCH  15  18
ENDBRANCH   1  15
TORSDOF 4
ENDMDL
MODEL 5
REMARK VINA RESULT:    -5.340      2.970      4.355
REMARK INTER + INTRA:          -7.519
REMARK INTER:                  -6.359
REMARK INTRA:                  -1.159
REMARK UNBOUND:                -0.930
REMARK  Name = ligantes_geracao2\Derivado_016.pdb
REMARK  6 active torsions:
REMARK  status: ('A' for Active; 'I' for Inactive)
REMARK    1  A    between atoms: C1_1  and  C2_2
REMARK    2  A    between atoms: C2_2  and  C3_3
REMARK    3  A    between atoms: C3_3  and  C4_5
REMARK    4  A    between atoms: C5_6  and  C6_7
REMARK    5  A    between atoms: C9_10  and  C10_11
REMARK    6  A    between atoms: C14_16  and  C15_17
REMARK                            x       y       z     vdW  Elec       q    Type
REMARK                         _______ _______ _______ _____ _____    ______ ____
ROOT
ATOM      1  C4  UNL     1       1.883  -0.078  19.975  0.00  0.00    +0.000 C 
ATOM      2  C5  UNL     1       2.224   1.358  19.556  0.00  0.00    +0.000 C 
ATOM      3  C6  UNL     1       3.375   1.959  20.352  0.00  0.00    +0.000 C 
ATOM      4  C7  UNL     1       2.560   1.208  18.073  0.00  0.00    +0.000 C 
ATOM      5  C8  UNL     1       1.548   0.192  17.550  0.00  0.00    +0.000 C 
ATOM      6  C9  UNL     1       1.092  -0.634  18.771  0.00  0.00    +0.000 C 
ENDROOT
BRANCH   6   7
ATOM      7  C10 UNL     1       1.168  -2.137  18.583  0.00  0.00    +0.000 C 
ATOM      8  C11 UNL     1       2.322  -2.670  18.002  0.00  0.00    +0.000 C 
ATOM      9  N1  UNL     1       2.542  -3.986  17.780  0.00  0.00    +0.000 NA
ATOM     10  C12 UNL     1       1.562  -4.838  18.132  0.00  0.00    +0.000 C 
ATOM     11  C13 UNL     1       0.375  -4.431  18.708  0.00  0.00    +0.000 C 
ATOM     12  C14 UNL     1       0.174  -3.065  18.938  0.00  0.00    +0.000 C 
BRANCH  12  13
ATOM     13  C15 UNL     1      -1.066  -2.681  19.547  0.00  0.00    +0.000 C 
ATOM     14  N2  UNL     1      -2.064  -2.362  20.047  0.00  0.00    +0.000 NA
ENDBRANCH  12  13
ENDBRANCH   6   7
BRANCH   1  15
ATOM     15  C3  UNL     1       1.078  -0.217  21.265  0.00  0.00    +0.000 C 
ATOM     16  O1  UNL     1      -0.061   0.255  21.320  0.00  0.00    +0.000 OA
BRANCH  15  18
ATOM     17  C1  UNL     1       2.322  -2.234  22.138  0.00  0.00    +0.000 C 
ATOM     18  C2  UNL     1       1.723  -0.878  22.471  0.00  0.00    +0.000 C 
ENDBRANCH  15  18
ENDBRANCH   1  15
TORSDOF 4
ENDMDL
MODEL 6
REMARK VINA RESULT:    -5.331     25.498     27.685
REMARK INTER + INTRA:          -7.507
REMARK INTER:                  -6.417
REMARK INTRA:                  -1.090
REMARK UNBOUND:                -0.930
REMARK  Name = ligantes_geracao2\Derivado_016.pdb
REMARK  6 active torsions:
REMARK  status: ('A' for Active; 'I' for Inactive)
REMARK    1  A    between atoms: C1_1  and  C2_2
REMARK    2  A    between atoms: C2_2  and  C3_3
REMARK    3  A    between atoms: C3_3  and  C4_5
REMARK    4  A    between atoms: C5_6  and  C6_7
REMARK    5  A    between atoms: C9_10  and  C10_11
REMARK    6  A    between atoms: C14_16  and  C15_17
REMARK                            x       y       z     vdW  Elec       q    Type
REMARK                         _______ _______ _______ _____ _____    ______ ____
ROOT
ATOM      1  C4  UNL     1      17.980  -8.911   2.452  0.00  0.00    +0.000 C 
ATOM      2  C5  UNL     1      16.770  -8.240   3.116  0.00  0.00    +0.000 C 
ATOM      3  C6  UNL     1      16.334  -6.958   2.418  0.00  0.00    +0.000 C 
ATOM      4  C7  UNL     1      15.701  -9.329   3.052  0.00  0.00    +0.000 C 
ATOM      5  C8  UNL     1      16.451 -10.625   3.343  0.00  0.00    +0.000 C 
ATOM      6  C9  UNL     1      17.926 -10.363   2.974  0.00  0.00    +0.000 C 
ENDROOT
BRANCH   6   7
ATOM      7  C10 UNL     1      18.545 -11.404   2.061  0.00  0.00    +0.000 C 
ATOM      8  C11 UNL     1      18.060 -11.506   0.754  0.00  0.00    +0.000 C 
ATOM      9  N1  UNL     1      18.516 -12.373  -0.178  0.00  0.00    +0.000 NA
ATOM     10  C12 UNL     1      19.500 -13.210   0.195  0.00  0.00    +0.000 C 
ATOM     11  C13 UNL     1      20.056 -13.210   1.459  0.00  0.00    +0.000 C 
ATOM     12  C14 UNL     1      19.575 -12.296   2.404  0.00  0.00    +0.000 C 
BRANCH  12  13
ATOM     13  C15 UNL     1      20.185 -12.318   3.702  0.00  0.00    +0.000 C 
ATOM     14  N2  UNL     1      20.667 -12.334   4.758  0.00  0.00    +0.000 NA
ENDBRANCH  12  13
ENDBRANCH   6   7
BRANCH   1  15
ATOM     15  C3  UNL     1      19.335  -8.275   2.750  0.00  0.00    +0.000 C 
ATOM     16  O1  UNL     1      19.867  -7.558   1.898  0.00  0.00    +0.000 OA
BRANCH  15  18
ATOM     17  C1  UNL     1      21.521  -8.801   3.903  0.00  0.00    +0.000 C 
ATOM     18  C2  UNL     1      20.025  -8.590   4.067  0.00  0.00    +0.000 C 
ENDBRANCH  15  18
ENDBRANCH   1  15
TORSDOF 4
ENDMDL
MODEL 7
REMARK VINA RESULT:    -5.250      2.080      4.806
REMARK INTER + INTRA:          -7.407
REMARK INTER:                  -6.339
REMARK INTRA:                  -1.068
REMARK UNBOUND:                -0.930
REMARK  Name = ligantes_geracao2\Derivado_016.pdb
REMARK  6 active torsions:
REMARK  status: ('A' for Active; 'I' for Inactive)
REMARK    1  A    between atoms: C1_1  and  C2_2
REMARK    2  A    between atoms: C2_2  and  C3_3
REMARK    3  A    between atoms: C3_3  and  C4_5
REMARK    4  A    between atoms: C5_6  and  C6_7
REMARK    5  A    between atoms: C9_10  and  C10_11
REMARK    6  A    between atoms: C14_16  and  C15_17
REMARK                            x       y       z     vdW  Elec       q    Type
REMARK                         _______ _______ _______ _____ _____    ______ ____
ROOT
ATOM      1  C4  UNL     1       1.620  -0.196  21.319  0.00  0.00    +0.000 C 
ATOM      2  C5  UNL     1       2.281  -1.562  21.091  0.00  0.00    +0.000 C 
ATOM      3  C6  UNL     1       2.321  -2.427  22.343  0.00  0.00    +0.000 C 
ATOM      4  C7  UNL     1       1.420  -2.175  19.988  0.00  0.00    +0.000 C 
ATOM      5  C8  UNL     1       1.104  -1.011  19.053  0.00  0.00    +0.000 C 
ATOM      6  C9  UNL     1       1.245   0.273  19.896  0.00  0.00    +0.000 C 
ENDROOT
BRANCH   6   7
ATOM      7  C10 UNL     1       0.060   1.217  19.815  0.00  0.00    +0.000 C 
ATOM      8  C11 UNL     1      -1.179   0.759  20.270  0.00  0.00    +0.000 C 
ATOM      9  N1  UNL     1      -2.320   1.484  20.274  0.00  0.00    +0.000 NA
ATOM     10  C12 UNL     1      -2.252   2.734  19.783  0.00  0.00    +0.000 C 
ATOM     11  C13 UNL     1      -1.088   3.295  19.298  0.00  0.00    +0.000 C 
ATOM     12  C14 UNL     1       0.084   2.530  19.316  0.00  0.00    +0.000 C 
BRANCH  12  13
ATOM     13  C15 UNL     1       1.276   3.150  18.814  0.00  0.00    +0.000 C 
ATOM     14  N2  UNL     1       2.246   3.641  18.408  0.00  0.00    +0.000 NA
ENDBRANCH  12  13
ENDBRANCH   6   7
BRANCH   1  15
ATOM     15  C3  UNL     1       2.483   0.847  22.026  0.00  0.00    +0.000 C 
ATOM     16  O1  UNL     1       2.256   1.120  23.207  0.00  0.00    +0.000 OA
BRANCH  15  18
ATOM     17  C1  UNL     1       3.768   2.998  21.705  0.00  0.00    +0.000 C 
ATOM     18  C2  UNL     1       3.564   1.568  21.237  0.00  0.00    +0.000 C 
ENDBRANCH  15  18
ENDBRANCH   1  15
TORSDOF 4
ENDMDL
MODEL 8
REMARK VINA RESULT:    -5.236     24.730     26.932
REMARK INTER + INTRA:          -7.390
REMARK INTER:                  -6.284
REMARK INTRA:                  -1.106
REMARK UNBOUND:                -0.930
REMARK  Name = ligantes_geracao2\Derivado_016.pdb
REMARK  6 active torsions:
REMARK  status: ('A' for Active; 'I' for Inactive)
REMARK    1  A    between atoms: C1_1  and  C2_2
REMARK    2  A    between atoms: C2_2  and  C3_3
REMARK    3  A    between atoms: C3_3  and  C4_5
REMARK    4  A    between atoms: C5_6  and  C6_7
REMARK    5  A    between atoms: C9_10  and  C10_11
REMARK    6  A    between atoms: C14_16  and  C15_17
REMARK                            x       y       z     vdW  Elec       q    Type
REMARK                         _______ _______ _______ _____ _____    ______ ____
ROOT
ATOM      1  C4  UNL     1      19.049  -8.775   2.719  0.00  0.00    +0.000 C 
ATOM      2  C5  UNL     1      20.242  -8.660   3.678  0.00  0.00    +0.000 C 
ATOM      3  C6  UNL     1      21.060  -9.940   3.778  0.00  0.00    +0.000 C 
ATOM      4  C7  UNL     1      21.043  -7.503   3.086  0.00  0.00    +0.000 C 
ATOM      5  C8  UNL     1      19.990  -6.500   2.622  0.00  0.00    +0.000 C 
ATOM      6  C9  UNL     1      18.694  -7.308   2.397  0.00  0.00    +0.000 C 
ENDROOT
BRANCH   6   7
ATOM      7  C10 UNL     1      18.033  -7.080   1.051  0.00  0.00    +0.000 C 
ATOM      8  C11 UNL     1      18.824  -7.181  -0.097  0.00  0.00    +0.000 C 
ATOM      9  N1  UNL     1      18.377  -7.018  -1.363  0.00  0.00    +0.000 NA
ATOM     10  C12 UNL     1      17.076  -6.719  -1.519  0.00  0.00    +0.000 C 
ATOM     11  C13 UNL     1      16.197  -6.585  -0.463  0.00  0.00    +0.000 C 
ATOM     12  C14 UNL     1      16.679  -6.770   0.838  0.00  0.00    +0.000 C 
BRANCH  12  13
ATOM     13  C15 UNL     1      15.734  -6.635   1.909  0.00  0.00    +0.000 C 
ATOM     14  N2  UNL     1      14.970  -6.537   2.777  0.00  0.00    +0.000 NA
ENDBRANCH  12  13
ENDBRANCH   6   7
BRANCH   1  15
ATOM     15  C3  UNL     1      17.834  -9.523   3.261  0.00  0.00    +0.000 C 
ATOM     16  O1  UNL     1      17.132  -8.989   4.124  0.00  0.00    +0.000 OA
BRANCH  15  18
ATOM     17  C1  UNL     1      18.333 -11.274   1.510  0.00  0.00    +0.000 C 
ATOM     18  C2  UNL     1      17.554 -10.934   2.769  0.00  0.00    +0.000 C 
ENDBRANCH  15  18
ENDBRANCH   1  15
TORSDOF 4
ENDMDL
MODEL 9
REMARK VINA RESULT:    -5.218      2.387      4.532
REMARK INTER + INTRA:          -7.368
REMARK INTER:                  -6.270
REMARK INTRA:                  -1.099
REMARK UNBOUND:                -0.930
REMARK  Name = ligantes_geracao2\Derivado_016.pdb
REMARK  6 active torsions:
REMARK  status: ('A' for Active; 'I' for Inactive)
REMARK    1  A    between atoms: C1_1  and  C2_2
REMARK    2  A    between atoms: C2_2  and  C3_3
REMARK    3  A    between atoms: C3_3  and  C4_5
REMARK    4  A    between atoms: C5_6  and  C6_7
REMARK    5  A    between atoms: C9_10  and  C10_11
REMARK    6  A    between atoms: C14_16  and  C15_17
REMARK                            x       y       z     vdW  Elec       q    Type
REMARK                         _______ _______ _______ _____ _____    ______ ____
ROOT
ATOM      1  C4  UNL     1       1.676   0.990  20.941  0.00  0.00    +0.000 C 
ATOM      2  C5  UNL     1       2.870   0.605  21.825  0.00  0.00    +0.000 C 
ATOM      3  C6  UNL     1       3.078   1.550  23.001  0.00  0.00    +0.000 C 
ATOM      4  C7  UNL     1       2.516  -0.811  22.275  0.00  0.00    +0.000 C 
ATOM      5  C8  UNL     1       1.889  -1.462  21.044  0.00  0.00    +0.000 C 
ATOM      6  C9  UNL     1       1.358  -0.308  20.169  0.00  0.00    +0.000 C 
ENDROOT
BRANCH   6   7
ATOM      7  C10 UNL     1      -0.085  -0.462  19.726  0.00  0.00    +0.000 C 
ATOM      8  C11 UNL     1      -1.089  -0.291  20.683  0.00  0.00    +0.000 C 
ATOM      9  N1  UNL     1      -2.416  -0.384  20.440  0.00  0.00    +0.000 NA
ATOM     10  C12 UNL     1      -2.788  -0.682  19.183  0.00  0.00    +0.000 C 
ATOM     11  C13 UNL     1      -1.890  -0.881  18.153  0.00  0.00    +0.000 C 
ATOM     12  C14 UNL     1      -0.521  -0.767  18.426  0.00  0.00    +0.000 C 
BRANCH  12  13
ATOM     13  C15 UNL     1       0.381  -0.969  17.330  0.00  0.00    +0.000 C 
ATOM     14  N2  UNL     1       1.120  -1.138  16.450  0.00  0.00    +0.000 NA
ENDBRANCH  12  13
ENDBRANCH   6   7
BRANCH   1  15
ATOM     15  C3  UNL     1       1.914   2.152  19.980  0.00  0.00    +0.000 C 
ATOM     16  O1  UNL     1       1.513   3.279  20.282  0.00  0.00    +0.000 OA
BRANCH  15  18
ATOM     17  C1  UNL     1       1.797   2.437  17.472  0.00  0.00    +0.000 C 
ATOM     18  C2  UNL     1       2.587   1.880  18.644  0.00  0.00    +0.000 C 
ENDBRANCH  15  18
ENDBRANCH   1  15
TORSDOF 4
ENDMDL
