MODEL 1
REMARK VINA RESULT:    -9.016      0.000      0.000
REMARK INTER + INTRA:         -12.639
REMARK INTER:                 -11.915
REMARK INTRA:                  -0.724
REMARK UNBOUND:                -0.724
REMARK  Name = ligantes_geracao2\Derivado_007.pdb
REMARK  8 active torsions:
REMARK  status: ('A' for Active; 'I' for Inactive)
REMARK    1  A    between atoms: C1_1  and  C2_2
REMARK    2  A    between atoms: C2_2  and  C3_3
REMARK    3  A    between atoms: C3_3  and  C4_4
REMARK    4  A    between atoms: C4_4  and  C5_6
REMARK    5  A    between atoms: C6_7  and  C7_8
REMARK    6  A    between atoms: C10_11  and  C11_12
REMARK    7  A    between atoms: C15_17  and  C16_18
REMARK    8  A    between atoms: N2_19  and  O2_20
REMARK                            x       y       z     vdW  Elec       q    Type
REMARK                         _______ _______ _______ _____ _____    ______ ____
ROOT
ATOM      1  C5  UNL     1       3.909  67.417  67.062  0.00  0.00    +0.000 C 
ATOM      2  C6  UNL     1       3.220  67.890  68.364  0.00  0.00    +0.000 C 
ATOM      3  C7  UNL     1       2.125  66.961  68.902  0.00  0.00    +0.000 C 
ATOM      4  C8  UNL     1       2.617  69.225  67.926  0.00  0.00    +0.000 C 
ATOM      5  C9  UNL     1       2.030  68.939  66.549  0.00  0.00    +0.000 C 
ATOM      6  C10 UNL     1       2.906  67.821  65.942  0.00  0.00    +0.000 C 
ENDROOT
BRANCH   6   7
ATOM      7  C11 UNL     1       3.521  68.279  64.632  0.00  0.00    +0.000 C 
ATOM      8  C12 UNL     1       4.831  68.765  64.607  0.00  0.00    +0.000 C 
ATOM      9  N1  UNL     1       5.502  69.147  63.497  0.00  0.00    +0.000 NA
ATOM     10  C13 UNL     1       4.841  69.075  62.328  0.00  0.00    +0.000 C 
ATOM     11  C14 UNL     1       3.531  68.654  62.226  0.00  0.00    +0.000 C 
ATOM     12  C15 UNL     1       2.856  68.273  63.391  0.00  0.00    +0.000 C 
BRANCH  12  13
ATOM     13  C16 UNL     1       1.436  67.908  63.182  0.00  0.00    +0.000 C 
ATOM     14  N2  UNL     1       0.677  68.465  62.295  0.00  0.00    +0.000 NA
BRANCH  14  15
ATOM     15  O2  UNL     1      -0.591  67.874  62.347  0.00  0.00    +0.000 OA
ATOM     16  H   UNL     1      -1.331  68.321  61.988  0.00  0.00    +0.000 HD
ENDBRANCH  14  15
ENDBRANCH  12  13
ENDBRANCH   6   7
BRANCH   1  17
ATOM     17  C4  UNL     1       4.337  65.944  67.089  0.00  0.00    +0.000 C 
ATOM     18  O1  UNL     1       3.651  65.072  66.548  0.00  0.00    +0.000 OA
BRANCH  17  19
ATOM     19  C3  UNL     1       5.531  65.532  67.926  0.00  0.00    +0.000 C 
BRANCH  19  21
ATOM     20  C1  UNL     1       4.689  63.725  69.460  0.00  0.00    +0.000 C 
ATOM     21  C2  UNL     1       5.109  65.181  69.347  0.00  0.00    +0.000 C 
ENDBRANCH  19  21
ENDBRANCH  17  19
ENDBRANCH   1  17
TORSDOF 6
ENDMDL
MODEL 2
REMARK VINA RESULT:    -8.415      2.754      3.768
REMARK INTER + INTRA:         -11.844
REMARK INTER:                 -10.736
REMARK INTRA:                  -1.109
REMARK UNBOUND:                -0.724
REMARK  Name = ligantes_geracao2\Derivado_007.pdb
REMARK  8 active torsions:
REMARK  status: ('A' for Active; 'I' for Inactive)
REMARK    1  A    between atoms: C1_1  and  C2_2
REMARK    2  A    between atoms: C2_2  and  C3_3
REMARK    3  A    between atoms: C3_3  and  C4_4
REMARK    4  A    between atoms: C4_4  and  C5_6
REMARK    5  A    between atoms: C6_7  and  C7_8
REMARK    6  A    between atoms: C10_11  and  C11_12
REMARK    7  A    between atoms: C15_17  and  C16_18
REMARK    8  A    between atoms: N2_19  and  O2_20
REMARK                            x       y       z     vdW  Elec       q    Type
REMARK                         _______ _______ _______ _____ _____    ______ ____
ROOT
ATOM      1  C5  UNL     1       4.278  66.848  63.534  0.00  0.00    +0.000 C 
ATOM      2  C6  UNL     1       5.542  67.287  64.312  0.00  0.00    +0.000 C 
ATOM      3  C7  UNL     1       5.727  66.632  65.686  0.00  0.00    +0.000 C 
ATOM      4  C8  UNL     1       5.302  68.789  64.466  0.00  0.00    +0.000 C 
ATOM      5  C9  UNL     1       3.828  68.899  64.839  0.00  0.00    +0.000 C 
ATOM      6  C10 UNL     1       3.136  67.688  64.176  0.00  0.00    +0.000 C 
ENDROOT
BRANCH   6   7
ATOM      7  C11 UNL     1       2.040  68.153  63.232  0.00  0.00    +0.000 C 
ATOM      8  C12 UNL     1       2.364  68.574  61.939  0.00  0.00    +0.000 C 
ATOM      9  N1  UNL     1       1.474  68.954  60.996  0.00  0.00    +0.000 NA
ATOM     10  C13 UNL     1       0.175  68.949  61.343  0.00  0.00    +0.000 C 
ATOM     11  C14 UNL     1      -0.269  68.596  62.601  0.00  0.00    +0.000 C 
ATOM     12  C15 UNL     1       0.674  68.216  63.563  0.00  0.00    +0.000 C 
BRANCH  12  13
ATOM     13  C16 UNL     1       0.101  67.929  64.898  0.00  0.00    +0.000 C 
ATOM     14  N2  UNL     1      -0.930  68.542  65.382  0.00  0.00    +0.000 NA
BRANCH  14  15
ATOM     15  O2  UNL     1      -1.219  68.016  66.647  0.00  0.00    +0.000 OA
ATOM     16  H   UNL     1      -2.047  67.610  66.807  0.00  0.00    +0.000 HD
ENDBRANCH  14  15
ENDBRANCH  12  13
ENDBRANCH   6   7
BRANCH   1  17
ATOM     17  C4  UNL     1       4.067  65.330  63.504  0.00  0.00    +0.000 C 
ATOM     18  O1  UNL     1       4.675  64.618  62.699  0.00  0.00    +0.000 OA
BRANCH  17  19
ATOM     19  C3  UNL     1       2.981  64.713  64.362  0.00  0.00    +0.000 C 
BRANCH  19  21
ATOM     20  C1  UNL     1       3.548  64.192  66.756  0.00  0.00    +0.000 C 
ATOM     21  C2  UNL     1       3.561  63.684  65.324  0.00  0.00    +0.000 C 
ENDBRANCH  19  21
ENDBRANCH  17  19
ENDBRANCH   1  17
TORSDOF 6
ENDMDL
MODEL 3
REMARK VINA RESULT:    -8.256      2.406      3.962
REMARK INTER + INTRA:         -11.634
REMARK INTER:                 -11.049
REMARK INTRA:                  -0.585
REMARK UNBOUND:                -0.724
REMARK  Name = ligantes_geracao2\Derivado_007.pdb
REMARK  8 active torsions:
REMARK  status: ('A' for Active; 'I' for Inactive)
REMARK    1  A    between atoms: C1_1  and  C2_2
REMARK    2  A    between atoms: C2_2  and  C3_3
REMARK    3  A    between atoms: C3_3  and  C4_4
REMARK    4  A    between atoms: C4_4  and  C5_6
REMARK    5  A    between atoms: C6_7  and  C7_8
REMARK    6  A    between atoms: C10_11  and  C11_12
REMARK    7  A    between atoms: C15_17  and  C16_18
REMARK    8  A    between atoms: N2_19  and  O2_20
REMARK                            x       y       z     vdW  Elec       q    Type
REMARK                         _______ _______ _______ _____ _____    ______ ____
ROOT
ATOM      1  C5  UNL     1       3.115  67.174  66.521  0.00  0.00    +0.000 C 
ATOM      2  C6  UNL     1       3.339  66.129  67.639  0.00  0.00    +0.000 C 
ATOM      3  C7  UNL     1       3.738  66.703  69.004  0.00  0.00    +0.000 C 
ATOM      4  C8  UNL     1       4.482  65.296  67.057  0.00  0.00    +0.000 C 
ATOM      5  C9  UNL     1       5.437  66.326  66.467  0.00  0.00    +0.000 C 
ATOM      6  C10 UNL     1       4.555  67.521  66.042  0.00  0.00    +0.000 C 
ENDROOT
BRANCH   6   7
ATOM      7  C11 UNL     1       4.714  67.798  64.557  0.00  0.00    +0.000 C 
ATOM      8  C12 UNL     1       5.180  69.042  64.125  0.00  0.00    +0.000 C 
ATOM      9  N1  UNL     1       5.414  69.385  62.838  0.00  0.00    +0.000 NA
ATOM     10  C13 UNL     1       5.152  68.458  61.901  0.00  0.00    +0.000 C 
ATOM     11  C14 UNL     1       4.648  67.207  62.196  0.00  0.00    +0.000 C 
ATOM     12  C15 UNL     1       4.405  66.880  63.535  0.00  0.00    +0.000 C 
BRANCH  12  13
ATOM     13  C16 UNL     1       3.797  65.546  63.737  0.00  0.00    +0.000 C 
ATOM     14  N2  UNL     1       4.376  64.437  63.405  0.00  0.00    +0.000 NA
BRANCH  14  15
ATOM     15  O2  UNL     1       3.541  63.368  63.752  0.00  0.00    +0.000 OA
ATOM     16  H   UNL     1       2.988  62.977  63.106  0.00  0.00    +0.000 HD
ENDBRANCH  14  15
ENDBRANCH  12  13
ENDBRANCH   6   7
BRANCH   1  17
ATOM     17  C4  UNL     1       2.240  68.359  66.948  0.00  0.00    +0.000 C 
ATOM     18  O1  UNL     1       2.741  69.446  67.244  0.00  0.00    +0.000 OA
BRANCH  17  19
ATOM     19  C3  UNL     1       0.755  68.146  67.165  0.00  0.00    +0.000 C 
BRANCH  19  21
ATOM     20  C1  UNL     1      -0.895  68.371  65.280  0.00  0.00    +0.000 C 
ATOM     21  C2  UNL     1       0.117  67.465  65.961  0.00  0.00    +0.000 C 
ENDBRANCH  19  21
ENDBRANCH  17  19
ENDBRANCH   1  17
TORSDOF 6
ENDMDL
MODEL 4
REMARK VINA RESULT:    -8.115      2.752      4.803
REMARK INTER + INTRA:         -11.448
REMARK INTER:                 -10.368
REMARK INTRA:                  -1.079
REMARK UNBOUND:                -0.724
REMARK  Name = ligantes_geracao2\Derivado_007.pdb
REMARK  8 active torsions:
REMARK  status: ('A' for Active; 'I' for Inactive)
REMARK    1  A    between atoms: C1_1  and  C2_2
REMARK    2  A    between atoms: C2_2  and  C3_3
REMARK    3  A    between atoms: C3_3  and  C4_4
REMARK    4  A    between atoms: C4_4  and  C5_6
REMARK    5  A    between atoms: C6_7  and  C7_8
REMARK    6  A    between atoms: C10_11  and  C11_12
REMARK    7  A    between atoms: C15_17  and  C16_18
REMARK    8  A    between atoms: N2_19  and  O2_20
REMARK                            x       y       z     vdW  Elec       q    Type
REMARK                         _______ _______ _______ _____ _____    ______ ____
ROOT
ATOM      1  C5  UNL     1       1.944  67.308  66.133  0.00  0.00    +0.000 C 
ATOM      2  C6  UNL     1       2.073  67.965  67.528  0.00  0.00    +0.000 C 
ATOM      3  C7  UNL     1       2.166  69.496  67.526  0.00  0.00    +0.000 C 
ATOM      4  C8  UNL     1       3.379  67.354  68.037  0.00  0.00    +0.000 C 
ATOM      5  C9  UNL     1       4.313  67.405  66.835  0.00  0.00    +0.000 C 
ATOM      6  C10 UNL     1       3.404  67.297  65.591  0.00  0.00    +0.000 C 
ENDROOT
BRANCH   6   7
ATOM      7  C11 UNL     1       3.792  66.095  64.749  0.00  0.00    +0.000 C 
ATOM      8  C12 UNL     1       3.649  64.804  65.267  0.00  0.00    +0.000 C 
ATOM      9  N1  UNL     1       3.907  63.660  64.595  0.00  0.00    +0.000 NA
ATOM     10  C13 UNL     1       4.363  63.779  63.337  0.00  0.00    +0.000 C 
ATOM     11  C14 UNL     1       4.589  64.997  62.727  0.00  0.00    +0.000 C 
ATOM     12  C15 UNL     1       4.322  66.167  63.447  0.00  0.00    +0.000 C 
BRANCH  12  13
ATOM     13  C16 UNL     1       4.667  67.416  62.731  0.00  0.00    +0.000 C 
ATOM     14  N2  UNL     1       4.340  67.649  61.501  0.00  0.00    +0.000 NA
BRANCH  14  15
ATOM     15  O2  UNL     1       4.798  68.923  61.144  0.00  0.00    +0.000 OA
ATOM     16  H   UNL     1       5.652  69.027  60.774  0.00  0.00    +0.000 HD
ENDBRANCH  14  15
ENDBRANCH  12  13
ENDBRANCH   6   7
BRANCH   1  17
ATOM     17  C4  UNL     1       0.892  67.968  65.233  0.00  0.00    +0.000 C 
ATOM     18  O1  UNL     1      -0.307  67.930  65.522  0.00  0.00    +0.000 OA
BRANCH  17  19
ATOM     19  C3  UNL     1       1.311  68.533  63.891  0.00  0.00    +0.000 C 
BRANCH  19  21
ATOM     20  C1  UNL     1       0.628  68.901  61.499  0.00  0.00    +0.000 C 
ATOM     21  C2  UNL     1       0.231  68.308  62.841  0.00  0.00    +0.000 C 
ENDBRANCH  19  21
ENDBRANCH  17  19
ENDBRANCH   1  17
TORSDOF 6
ENDMDL
MODEL 5
REMARK VINA RESULT:    -7.940      2.165      4.132
REMARK INTER + INTRA:         -11.217
REMARK INTER:                 -10.361
REMARK INTRA:                  -0.856
REMARK UNBOUND:                -0.724
REMARK  Name = ligantes_geracao2\Derivado_007.pdb
REMARK  8 active torsions:
REMARK  status: ('A' for Active; 'I' for Inactive)
REMARK    1  A    between atoms: C1_1  and  C2_2
REMARK    2  A    between atoms: C2_2  and  C3_3
REMARK    3  A    between atoms: C3_3  and  C4_4
REMARK    4  A    between atoms: C4_4  and  C5_6
REMARK    5  A    between atoms: C6_7  and  C7_8
REMARK    6  A    between atoms: C10_11  and  C11_12
REMARK    7  A    between atoms: C15_17  and  C16_18
REMARK    8  A    between atoms: N2_19  and  O2_20
REMARK                            x       y       z     vdW  Elec       q    Type
REMARK                         _______ _______ _______ _____ _____    ______ ____
ROOT
ATOM      1  C5  UNL     1       3.075  66.614  66.773  0.00  0.00    +0.000 C 
ATOM      2  C6  UNL     1       3.812  65.346  67.266  0.00  0.00    +0.000 C 
ATOM      3  C7  UNL     1       5.207  65.586  67.857  0.00  0.00    +0.000 C 
ATOM      4  C8  UNL     1       3.913  64.528  65.978  0.00  0.00    +0.000 C 
ATOM      5  C9  UNL     1       4.308  65.547  64.916  0.00  0.00    +0.000 C 
ATOM      6  C10 UNL     1       3.705  66.892  65.377  0.00  0.00    +0.000 C 
ENDROOT
BRANCH   6   7
ATOM      7  C11 UNL     1       2.764  67.444  64.321  0.00  0.00    +0.000 C 
ATOM      8  C12 UNL     1       1.407  67.114  64.353  0.00  0.00    +0.000 C 
ATOM      9  N1  UNL     1       0.468  67.587  63.503  0.00  0.00    +0.000 NA
ATOM     10  C13 UNL     1       0.883  68.422  62.536  0.00  0.00    +0.000 C 
ATOM     11  C14 UNL     1       2.203  68.790  62.371  0.00  0.00    +0.000 C 
ATOM     12  C15 UNL     1       3.158  68.279  63.258  0.00  0.00    +0.000 C 
BRANCH  12  13
ATOM     13  C16 UNL     1       4.551  68.676  62.951  0.00  0.00    +0.000 C 
ATOM     14  N2  UNL     1       5.102  68.514  61.792  0.00  0.00    +0.000 NA
BRANCH  14  15
ATOM     15  O2  UNL     1       6.409  69.015  61.837  0.00  0.00    +0.000 OA
ATOM     16  H   UNL     1       6.628  69.697  62.440  0.00  0.00    +0.000 HD
ENDBRANCH  14  15
ENDBRANCH  12  13
ENDBRANCH   6   7
BRANCH   1  17
ATOM     17  C4  UNL     1       3.107  67.776  67.774  0.00  0.00    +0.000 C 
ATOM     18  O1  UNL     1       3.153  67.568  68.990  0.00  0.00    +0.000 OA
BRANCH  17  19
ATOM     19  C3  UNL     1       2.917  69.194  67.274  0.00  0.00    +0.000 C 
BRANCH  19  21
ATOM     20  C1  UNL     1       0.407  69.239  67.114  0.00  0.00    +0.000 C 
ATOM     21  C2  UNL     1       1.631  69.800  67.820  0.00  0.00    +0.000 C 
ENDBRANCH  19  21
ENDBRANCH  17  19
ENDBRANCH   1  17
TORSDOF 6
ENDMDL
MODEL 6
REMARK VINA RESULT:    -7.631      4.225      7.440
REMARK INTER + INTRA:         -10.809
REMARK INTER:                 -10.462
REMARK INTRA:                  -0.347
REMARK UNBOUND:                -0.724
REMARK  Name = ligantes_geracao2\Derivado_007.pdb
REMARK  8 active torsions:
REMARK  status: ('A' for Active; 'I' for Inactive)
REMARK    1  A    between atoms: C1_1  and  C2_2
REMARK    2  A    between atoms: C2_2  and  C3_3
REMARK    3  A    between atoms: C3_3  and  C4_4
REMARK    4  A    between atoms: C4_4  and  C5_6
REMARK    5  A    between atoms: C6_7  and  C7_8
REMARK    6  A    between atoms: C10_11  and  C11_12
REMARK    7  A    between atoms: C15_17  and  C16_18
REMARK    8  A    between atoms: N2_19  and  O2_20
REMARK                            x       y       z     vdW  Elec       q    Type
REMARK                         _______ _______ _______ _____ _____    ______ ____
ROOT
ATOM      1  C5  UNL     1       3.284  65.770  68.503  0.00  0.00    +0.000 C 
ATOM      2  C6  UNL     1       4.788  66.128  68.436  0.00  0.00    +0.000 C 
ATOM      3  C7  UNL     1       5.437  65.979  67.054  0.00  0.00    +0.000 C 
ATOM      4  C8  UNL     1       5.388  65.121  69.417  0.00  0.00    +0.000 C 
ATOM      5  C9  UNL     1       4.672  63.813  69.100  0.00  0.00    +0.000 C 
ATOM      6  C10 UNL     1       3.274  64.216  68.579  0.00  0.00    +0.000 C 
ENDROOT
BRANCH   6   7
ATOM      7  C11 UNL     1       2.187  63.598  69.440  0.00  0.00    +0.000 C 
ATOM      8  C12 UNL     1       1.270  64.419  70.102  0.00  0.00    +0.000 C 
ATOM      9  N1  UNL     1       0.229  63.985  70.847  0.00  0.00    +0.000 NA
ATOM     10  C13 UNL     1       0.084  62.656  70.981  0.00  0.00    +0.000 C 
ATOM     11  C14 UNL     1       0.948  61.742  70.413  0.00  0.00    +0.000 C 
ATOM     12  C15 UNL     1       2.024  62.217  69.653  0.00  0.00    +0.000 C 
BRANCH  12  13
ATOM     13  C16 UNL     1       2.930  61.159  69.152  0.00  0.00    +0.000 C 
ATOM     14  N2  UNL     1       2.706  59.894  69.300  0.00  0.00    +0.000 NA
BRANCH  14  15
ATOM     15  O2  UNL     1       3.743  59.175  68.692  0.00  0.00    +0.000 OA
ATOM     16  H   UNL     1       4.549  59.603  68.482  0.00  0.00    +0.000 HD
ENDBRANCH  14  15
ENDBRANCH  12  13
ENDBRANCH   6   7
BRANCH   1  17
ATOM     17  C4  UNL     1       2.449  66.398  67.380  0.00  0.00    +0.000 C 
ATOM     18  O1  UNL     1       2.450  65.921  66.242  0.00  0.00    +0.000 OA
BRANCH  17  19
ATOM     19  C3  UNL     1       1.739  67.714  67.628  0.00  0.00    +0.000 C 
BRANCH  19  21
ATOM     20  C1  UNL     1       2.480  70.036  68.248  0.00  0.00    +0.000 C 
ATOM     21  C2  UNL     1       2.627  68.894  67.256  0.00  0.00    +0.000 C 
ENDBRANCH  19  21
ENDBRANCH  17  19
ENDBRANCH   1  17
TORSDOF 6
ENDMDL
MODEL 7
REMARK VINA RESULT:    -7.585      4.956      8.434
REMARK INTER + INTRA:         -10.748
REMARK INTER:                  -9.890
REMARK INTRA:                  -0.858
REMARK UNBOUND:                -0.724
REMARK  Name = ligantes_geracao2\Derivado_007.pdb
REMARK  8 active torsions:
REMARK  status: ('A' for Active; 'I' for Inactive)
REMARK    1  A    between atoms: C1_1  and  C2_2
REMARK    2  A    between atoms: C2_2  and  C3_3
REMARK    3  A    between atoms: C3_3  and  C4_4
REMARK    4  A    between atoms: C4_4  and  C5_6
REMARK    5  A    between atoms: C6_7  and  C7_8
REMARK    6  A    between atoms: C10_11  and  C11_12
REMARK    7  A    between atoms: C15_17  and  C16_18
REMARK    8  A    between atoms: N2_19  and  O2_20
REMARK                            x       y       z     vdW  Elec       q    Type
REMARK                         _______ _______ _______ _____ _____    ______ ____
ROOT
ATOM      1  C5  UNL     1       3.682  62.368  70.527  0.00  0.00    +0.000 C 
ATOM      2  C6  UNL     1       4.485  61.097  70.163  0.00  0.00    +0.000 C 
ATOM      3  C7  UNL     1       4.322  60.608  68.719  0.00  0.00    +0.000 C 
ATOM      4  C8  UNL     1       3.902  60.075  71.140  0.00  0.00    +0.000 C 
ATOM      5  C9  UNL     1       2.401  60.334  71.106  0.00  0.00    +0.000 C 
ATOM      6  C10 UNL     1       2.242  61.837  70.786  0.00  0.00    +0.000 C 
ENDROOT
BRANCH   6   7
ATOM      7  C11 UNL     1       1.463  62.535  71.886  0.00  0.00    +0.000 C 
ATOM      8  C12 UNL     1       1.589  62.108  73.211  0.00  0.00    +0.000 C 
ATOM      9  N1  UNL     1       0.992  62.685  74.278  0.00  0.00    +0.000 NA
ATOM     10  C13 UNL     1       0.193  63.739  74.036  0.00  0.00    +0.000 C 
ATOM     11  C14 UNL     1      -0.048  64.229  72.769  0.00  0.00    +0.000 C 
ATOM     12  C15 UNL     1       0.575  63.608  71.680  0.00  0.00    +0.000 C 
BRANCH  12  13
ATOM     13  C16 UNL     1       0.193  64.163  70.361  0.00  0.00    +0.000 C 
ATOM     14  N2  UNL     1       0.289  65.416  70.056  0.00  0.00    +0.000 NA
BRANCH  14  15
ATOM     15  O2  UNL     1      -0.131  65.595  68.733  0.00  0.00    +0.000 OA
ATOM     16  H   UNL     1       0.066  66.392  68.283  0.00  0.00    +0.000 HD
ENDBRANCH  14  15
ENDBRANCH  12  13
ENDBRANCH   6   7
BRANCH   1  17
ATOM     17  C4  UNL     1       3.812  63.497  69.497  0.00  0.00    +0.000 C 
ATOM     18  O1  UNL     1       2.964  63.655  68.614  0.00  0.00    +0.000 OA
BRANCH  17  19
ATOM     19  C3  UNL     1       5.078  64.330  69.462  0.00  0.00    +0.000 C 
BRANCH  19  21
ATOM     20  C1  UNL     1       5.367  65.844  67.474  0.00  0.00    +0.000 C 
ATOM     21  C2  UNL     1       4.808  65.712  68.882  0.00  0.00    +0.000 C 
ENDBRANCH  19  21
ENDBRANCH  17  19
ENDBRANCH   1  17
TORSDOF 6
ENDMDL
MODEL 8
REMARK VINA RESULT:    -7.387      2.579      3.817
REMARK INTER + INTRA:         -10.486
REMARK INTER:                 -10.261
REMARK INTRA:                  -0.224
REMARK UNBOUND:                -0.724
REMARK  Name = ligantes_geracao2\Derivado_007.pdb
REMARK  8 active torsions:
REMARK  status: ('A' for Active; 'I' for Inactive)
REMARK    1  A    between atoms: C1_1  and  C2_2
REMARK    2  A    between atoms: C2_2  and  C3_3
REMARK    3  A    between atoms: C3_3  and  C4_4
REMARK    4  A    between atoms: C4_4  and  C5_6
REMARK    5  A    between atoms: C6_7  and  C7_8
REMARK    6  A    between atoms: C10_11  and  C11_12
REMARK    7  A    between atoms: C15_17  and  C16_18
REMARK    8  A    between atoms: N2_19  and  O2_20
REMARK                            x       y       z     vdW  Elec       q    Type
REMARK                         _______ _______ _______ _____ _____    ______ ____
ROOT
ATOM      1  C5  UNL     1       3.189  65.426  67.747  0.00  0.00    +0.000 C 
ATOM      2  C6  UNL     1       4.721  65.211  67.720  0.00  0.00    +0.000 C 
ATOM      3  C7  UNL     1       5.455  65.558  69.021  0.00  0.00    +0.000 C 
ATOM      4  C8  UNL     1       5.146  66.161  66.600  0.00  0.00    +0.000 C 
ATOM      5  C9  UNL     1       4.333  67.426  66.850  0.00  0.00    +0.000 C 
ATOM      6  C10 UNL     1       3.024  66.958  67.524  0.00  0.00    +0.000 C 
ENDROOT
BRANCH   6   7
ATOM      7  C11 UNL     1       1.821  67.385  66.702  0.00  0.00    +0.000 C 
ATOM      8  C12 UNL     1       0.799  68.130  67.297  0.00  0.00    +0.000 C 
ATOM      9  N1  UNL     1      -0.290  68.614  66.656  0.00  0.00    +0.000 NA
ATOM     10  C13 UNL     1      -0.406  68.330  65.348  0.00  0.00    +0.000 C 
ATOM     11  C14 UNL     1       0.513  67.567  64.656  0.00  0.00    +0.000 C 
ATOM     12  C15 UNL     1       1.627  67.070  65.344  0.00  0.00    +0.000 C 
BRANCH  12  13
ATOM     13  C16 UNL     1       2.511  66.205  64.531  0.00  0.00    +0.000 C 
ATOM     14  N2  UNL     1       3.185  66.627  63.511  0.00  0.00    +0.000 NA
BRANCH  14  15
ATOM     15  O2  UNL     1       3.930  65.564  62.987  0.00  0.00    +0.000 OA
ATOM     16  H   UNL     1       4.046  65.484  62.061  0.00  0.00    +0.000 HD
ENDBRANCH  14  15
ENDBRANCH  12  13
ENDBRANCH   6   7
BRANCH   1  17
ATOM     17  C4  UNL     1       2.505  64.846  68.991  0.00  0.00    +0.000 C 
ATOM     18  O1  UNL     1       1.649  65.488  69.605  0.00  0.00    +0.000 OA
BRANCH  17  19
ATOM     19  C3  UNL     1       2.998  63.534  69.567  0.00  0.00    +0.000 C 
BRANCH  19  21
ATOM     20  C1  UNL     1       3.690  61.200  68.934  0.00  0.00    +0.000 C 
ATOM     21  C2  UNL     1       2.828  62.398  68.568  0.00  0.00    +0.000 C 
ENDBRANCH  19  21
ENDBRANCH  17  19
ENDBRANCH   1  17
TORSDOF 6
ENDMDL
MODEL 9
REMARK VINA RESULT:    -7.379      2.816      5.237
REMARK INTER + INTRA:         -10.475
REMARK INTER:                  -9.902
REMARK INTRA:                  -0.573
REMARK UNBOUND:                -0.724
REMARK  Name = ligantes_geracao2\Derivado_007.pdb
REMARK  8 active torsions:
REMARK  status: ('A' for Active; 'I' for Inactive)
REMARK    1  A    between atoms: C1_1  and  C2_2
REMARK    2  A    between atoms: C2_2  and  C3_3
REMARK    3  A    between atoms: C3_3  and  C4_4
REMARK    4  A    between atoms: C4_4  and  C5_6
REMARK    5  A    between atoms: C6_7  and  C7_8
REMARK    6  A    between atoms: C10_11  and  C11_12
REMARK    7  A    between atoms: C15_17  and  C16_18
REMARK    8  A    between atoms: N2_19  and  O2_20
REMARK                            x       y       z     vdW  Elec       q    Type
REMARK                         _______ _______ _______ _____ _____    ______ ____
ROOT
ATOM      1  C5  UNL     1       2.144  67.119  65.997  0.00  0.00    +0.000 C 
ATOM      2  C6  UNL     1       2.362  67.759  67.389  0.00  0.00    +0.000 C 
ATOM      3  C7  UNL     1       2.396  69.292  67.407  0.00  0.00    +0.000 C 
ATOM      4  C8  UNL     1       3.728  67.191  67.778  0.00  0.00    +0.000 C 
ATOM      5  C9  UNL     1       4.557  67.298  66.504  0.00  0.00    +0.000 C 
ATOM      6  C10 UNL     1       3.552  67.174  65.337  0.00  0.00    +0.000 C 
ENDROOT
BRANCH   6   7
ATOM      7  C11 UNL     1       3.916  66.000  64.445  0.00  0.00    +0.000 C 
ATOM      8  C12 UNL     1       4.406  66.228  63.156  0.00  0.00    +0.000 C 
ATOM      9  N1  UNL     1       4.814  65.269  62.295  0.00  0.00    +0.000 NA
ATOM     10  C13 UNL     1       4.713  63.994  62.706  0.00  0.00    +0.000 C 
ATOM     11  C14 UNL     1       4.205  63.636  63.938  0.00  0.00    +0.000 C 
ATOM     12  C15 UNL     1       3.780  64.647  64.809  0.00  0.00    +0.000 C 
BRANCH  12  13
ATOM     13  C16 UNL     1       3.185  64.155  66.071  0.00  0.00    +0.000 C 
ATOM     14  N2  UNL     1       3.883  63.754  67.084  0.00  0.00    +0.000 NA
BRANCH  14  15
ATOM     15  O2  UNL     1       3.012  63.379  68.115  0.00  0.00    +0.000 OA
ATOM     16  H   UNL     1       3.344  62.933  68.868  0.00  0.00    +0.000 HD
ENDBRANCH  14  15
ENDBRANCH  12  13
ENDBRANCH   6   7
BRANCH   1  17
ATOM     17  C4  UNL     1       0.997  67.750  65.199  0.00  0.00    +0.000 C 
ATOM     18  O1  UNL     1      -0.165  67.710  65.613  0.00  0.00    +0.000 OA
BRANCH  17  19
ATOM     19  C3  UNL     1       1.267  68.290  63.809  0.00  0.00    +0.000 C 
BRANCH  19  21
ATOM     20  C1  UNL     1       0.202  69.178  61.711  0.00  0.00    +0.000 C 
ATOM     21  C2  UNL     1      -0.026  68.434  63.016  0.00  0.00    +0.000 C 
ENDBRANCH  19  21
ENDBRANCH  17  19
ENDBRANCH   1  17
TORSDOF 6
ENDMDL
