MODEL 1
REMARK VINA RESULT:    -5.666      0.000      0.000
REMARK INTER + INTRA:          -8.673
REMARK INTER:                  -7.322
REMARK INTRA:                  -1.352
REMARK UNBOUND:                -1.352
REMARK  Name = ligantes_geracao2\Derivado_014.pdb
REMARK  8 active torsions:
REMARK  status: ('A' for Active; 'I' for Inactive)
REMARK    1  A    between atoms: C1_1  and  C2_2
REMARK    2  A    between atoms: C2_2  and  C3_3
REMARK    3  A    between atoms: C3_3  and  C4_4
REMARK    4  A    between atoms: C4_4  and  C5_6
REMARK    5  A    between atoms: C6_7  and  C7_8
REMARK    6  A    between atoms: C10_11  and  C11_12
REMARK    7  A    between atoms: C13_15  and  C14_16
REMARK    8  A    between atoms: C16_18  and  C17_19
REMARK                            x       y       z     vdW  Elec       q    Type
REMARK                         _______ _______ _______ _____ _____    ______ ____
ROOT
ATOM      1  C5  UNL     1       2.449   1.240  20.455  0.00  0.00    +0.000 C 
ATOM      2  C6  UNL     1       3.488   1.530  21.562  0.00  0.00    +0.000 C 
ATOM      3  C7  UNL     1       4.130   2.908  21.567  0.00  0.00    +0.000 C 
ATOM      4  C8  UNL     1       2.772   1.194  22.868  0.00  0.00    +0.000 C 
ATOM      5  C9  UNL     1       1.958  -0.036  22.498  0.00  0.00    +0.000 C 
ATOM      6  C10 UNL     1       1.395   0.302  21.104  0.00  0.00    +0.000 C 
ENDROOT
BRANCH   6   7
ATOM      7  C11 UNL     1       1.064  -0.921  20.271  0.00  0.00    +0.000 C 
ATOM      8  C12 UNL     1       1.838  -2.075  20.361  0.00  0.00    +0.000 C 
ATOM      9  N1  UNL     1       1.619  -3.208  19.657  0.00  0.00    +0.000 NA
ATOM     10  C13 UNL     1       0.584  -3.224  18.793  0.00  0.00    +0.000 C 
ATOM     11  C14 UNL     1       0.351  -4.485  18.017  0.00  0.00    +0.000 C 
ATOM     12  C15 UNL     1      -0.249  -2.130  18.619  0.00  0.00    +0.000 C 
ATOM     13  C16 UNL     1      -0.006  -0.968  19.362  0.00  0.00    +0.000 C 
BRANCH  13  14
ATOM     14  C17 UNL     1      -0.882   0.151  19.158  0.00  0.00    +0.000 C 
ATOM     15  N2  UNL     1      -1.596   1.053  19.010  0.00  0.00    +0.000 NA
ENDBRANCH  13  14
ENDBRANCH   6   7
BRANCH   1  16
ATOM     16  C4  UNL     1       1.852   2.485  19.789  0.00  0.00    +0.000 C 
ATOM     17  O1  UNL     1       1.007   3.143  20.401  0.00  0.00    +0.000 OA
BRANCH  16  18
ATOM     18  C3  UNL     1       2.297   2.870  18.384  0.00  0.00    +0.000 C 
BRANCH  18  20
ATOM     19  C1  UNL     1       0.738   2.275  16.467  0.00  0.00    +0.000 C 
ATOM     20  C2  UNL     1       1.921   1.837  17.321  0.00  0.00    +0.000 C 
ENDBRANCH  18  20
ENDBRANCH  16  18
ENDBRANCH   1  16
TORSDOF 5
ENDMDL
MODEL 2
REMARK VINA RESULT:    -5.620     23.699     25.290
REMARK INTER + INTRA:          -8.614
REMARK INTER:                  -7.189
REMARK INTRA:                  -1.425
REMARK UNBOUND:                -1.352
REMARK  Name = ligantes_geracao2\Derivado_014.pdb
REMARK  8 active torsions:
REMARK  status: ('A' for Active; 'I' for Inactive)
REMARK    1  A    between atoms: C1_1  and  C2_2
REMARK    2  A    between atoms: C2_2  and  C3_3
REMARK    3  A    between atoms: C3_3  and  C4_4
REMARK    4  A    between atoms: C4_4  and  C5_6
REMARK    5  A    between atoms: C6_7  and  C7_8
REMARK    6  A    between atoms: C10_11  and  C11_12
REMARK    7  A    between atoms: C13_15  and  C14_16
REMARK    8  A    between atoms: C16_18  and  C17_19
REMARK                            x       y       z     vdW  Elec       q    Type
REMARK                         _______ _______ _______ _____ _____    ______ ____
ROOT
ATOM      1  C5  UNL     1      16.047  -6.495   2.194  0.00  0.00    +0.000 C 
ATOM      2  C6  UNL     1      14.953  -6.970   1.210  0.00  0.00    +0.000 C 
ATOM      3  C7  UNL     1      13.649  -6.188   1.192  0.00  0.00    +0.000 C 
ATOM      4  C8  UNL     1      15.645  -7.018  -0.151  0.00  0.00    +0.000 C 
ATOM      5  C9  UNL     1      17.032  -7.536   0.197  0.00  0.00    +0.000 C 
ATOM      6  C10 UNL     1      17.399  -6.769   1.482  0.00  0.00    +0.000 C 
ENDROOT
BRANCH   6   7
ATOM      7  C11 UNL     1      18.415  -7.489   2.347  0.00  0.00    +0.000 C 
ATOM      8  C12 UNL     1      18.161  -8.772   2.828  0.00  0.00    +0.000 C 
ATOM      9  N1  UNL     1      19.004  -9.486   3.605  0.00  0.00    +0.000 NA
ATOM     10  C13 UNL     1      20.175  -8.916   3.956  0.00  0.00    +0.000 C 
ATOM     11  C14 UNL     1      21.103  -9.717   4.819  0.00  0.00    +0.000 C 
ATOM     12  C15 UNL     1      20.530  -7.643   3.538  0.00  0.00    +0.000 C 
ATOM     13  C16 UNL     1      19.642  -6.922   2.729  0.00  0.00    +0.000 C 
BRANCH  13  14
ATOM     14  C17 UNL     1      20.034  -5.605   2.317  0.00  0.00    +0.000 C 
ATOM     15  N2  UNL     1      20.333  -4.537   1.976  0.00  0.00    +0.000 NA
ENDBRANCH  13  14
ENDBRANCH   6   7
BRANCH   1  16
ATOM     16  C4  UNL     1      15.883  -5.055   2.692  0.00  0.00    +0.000 C 
ATOM     17  O1  UNL     1      15.120  -4.832   3.635  0.00  0.00    +0.000 OA
BRANCH  16  18
ATOM     18  C3  UNL     1      16.647  -3.932   2.002  0.00  0.00    +0.000 C 
BRANCH  18  20
ATOM     19  C1  UNL     1      16.580  -3.495  -0.501  0.00  0.00    +0.000 C 
ATOM     20  C2  UNL     1      15.882  -3.300   0.838  0.00  0.00    +0.000 C 
ENDBRANCH  18  20
ENDBRANCH  16  18
ENDBRANCH   1  16
TORSDOF 5
ENDMDL
MODEL 3
REMARK VINA RESULT:    -5.604      2.475      5.663
REMARK INTER + INTRA:          -8.594
REMARK INTER:                  -7.490
REMARK INTRA:                  -1.104
REMARK UNBOUND:                -1.352
REMARK  Name = ligantes_geracao2\Derivado_014.pdb
REMARK  8 active torsions:
REMARK  status: ('A' for Active; 'I' for Inactive)
REMARK    1  A    between atoms: C1_1  and  C2_2
REMARK    2  A    between atoms: C2_2  and  C3_3
REMARK    3  A    between atoms: C3_3  and  C4_4
REMARK    4  A    between atoms: C4_4  and  C5_6
REMARK    5  A    between atoms: C6_7  and  C7_8
REMARK    6  A    between atoms: C10_11  and  C11_12
REMARK    7  A    between atoms: C13_15  and  C14_16
REMARK    8  A    between atoms: C16_18  and  C17_19
REMARK                            x       y       z     vdW  Elec       q    Type
REMARK                         _______ _______ _______ _____ _____    ______ ____
ROOT
ATOM      1  C5  UNL     1       0.746  -1.394  18.727  0.00  0.00    +0.000 C 
ATOM      2  C6  UNL     1      -0.434  -1.230  17.742  0.00  0.00    +0.000 C 
ATOM      3  C7  UNL     1      -0.668  -2.356  16.746  0.00  0.00    +0.000 C 
ATOM      4  C8  UNL     1      -1.646  -0.948  18.627  0.00  0.00    +0.000 C 
ATOM      5  C9  UNL     1      -1.066  -0.060  19.716  0.00  0.00    +0.000 C 
ATOM      6  C10 UNL     1       0.285  -0.721  20.048  0.00  0.00    +0.000 C 
ENDROOT
BRANCH   6   7
ATOM      7  C11 UNL     1       1.301   0.239  20.636  0.00  0.00    +0.000 C 
ATOM      8  C12 UNL     1       1.345   1.569  20.225  0.00  0.00    +0.000 C 
ATOM      9  N1  UNL     1       2.216   2.493  20.691  0.00  0.00    +0.000 NA
ATOM     10  C13 UNL     1       3.119   2.101  21.613  0.00  0.00    +0.000 C 
ATOM     11  C14 UNL     1       4.079   3.131  22.122  0.00  0.00    +0.000 C 
ATOM     12  C15 UNL     1       3.168   0.800  22.090  0.00  0.00    +0.000 C 
ATOM     13  C16 UNL     1       2.254  -0.140  21.596  0.00  0.00    +0.000 C 
BRANCH  13  14
ATOM     14  C17 UNL     1       2.333  -1.479  22.104  0.00  0.00    +0.000 C 
ATOM     15  N2  UNL     1       2.385  -2.568  22.501  0.00  0.00    +0.000 NA
ENDBRANCH  13  14
ENDBRANCH   6   7
BRANCH   1  16
ATOM     16  C4  UNL     1       1.247  -2.832  18.899  0.00  0.00    +0.000 C 
ATOM     17  O1  UNL     1       0.516  -3.657  19.453  0.00  0.00    +0.000 OA
BRANCH  16  18
ATOM     18  C3  UNL     1       2.638  -3.206  18.405  0.00  0.00    +0.000 C 
BRANCH  18  20
ATOM     19  C1  UNL     1       3.471  -2.137  16.255  0.00  0.00    +0.000 C 
ATOM     20  C2  UNL     1       2.736  -3.313  16.883  0.00  0.00    +0.000 C 
ENDBRANCH  18  20
ENDBRANCH  16  18
ENDBRANCH   1  16
TORSDOF 5
ENDMDL
MODEL 4
REMARK VINA RESULT:    -5.413     24.163     25.865
REMARK INTER + INTRA:          -8.346
REMARK INTER:                  -7.000
REMARK INTRA:                  -1.347
REMARK UNBOUND:                -1.352
REMARK  Name = ligantes_geracao2\Derivado_014.pdb
REMARK  8 active torsions:
REMARK  status: ('A' for Active; 'I' for Inactive)
REMARK    1  A    between atoms: C1_1  and  C2_2
REMARK    2  A    between atoms: C2_2  and  C3_3
REMARK    3  A    between atoms: C3_3  and  C4_4
REMARK    4  A    between atoms: C4_4  and  C5_6
REMARK    5  A    between atoms: C6_7  and  C7_8
REMARK    6  A    between atoms: C10_11  and  C11_12
REMARK    7  A    between atoms: C13_15  and  C14_16
REMARK    8  A    between atoms: C16_18  and  C17_19
REMARK                            x       y       z     vdW  Elec       q    Type
REMARK                         _______ _______ _______ _____ _____    ______ ____
ROOT
ATOM      1  C5  UNL     1      18.644  -8.138   2.901  0.00  0.00    +0.000 C 
ATOM      2  C6  UNL     1      19.963  -8.041   3.703  0.00  0.00    +0.000 C 
ATOM      3  C7  UNL     1      20.363  -9.255   4.527  0.00  0.00    +0.000 C 
ATOM      4  C8  UNL     1      21.017  -7.637   2.675  0.00  0.00    +0.000 C 
ATOM      5  C9  UNL     1      20.262  -6.660   1.787  0.00  0.00    +0.000 C 
ATOM      6  C10 UNL     1      18.883  -7.322   1.602  0.00  0.00    +0.000 C 
ENDROOT
BRANCH   6   7
ATOM      7  C11 UNL     1      17.776  -6.336   1.282  0.00  0.00    +0.000 C 
ATOM      8  C12 UNL     1      17.754  -5.074   1.872  0.00  0.00    +0.000 C 
ATOM      9  N1  UNL     1      16.808  -4.135   1.649  0.00  0.00    +0.000 NA
ATOM     10  C13 UNL     1      15.802  -4.440   0.803  0.00  0.00    +0.000 C 
ATOM     11  C14 UNL     1      14.758  -3.392   0.564  0.00  0.00    +0.000 C 
ATOM     12  C15 UNL     1      15.722  -5.668   0.165  0.00  0.00    +0.000 C 
ATOM     13  C16 UNL     1      16.715  -6.625   0.408  0.00  0.00    +0.000 C 
BRANCH  13  14
ATOM     14  C17 UNL     1      16.604  -7.888  -0.263  0.00  0.00    +0.000 C 
ATOM     15  N2  UNL     1      16.503  -8.916  -0.791  0.00  0.00    +0.000 NA
ENDBRANCH  13  14
ENDBRANCH   6   7
BRANCH   1  16
ATOM     16  C4  UNL     1      18.140  -9.565   2.659  0.00  0.00    +0.000 C 
ATOM     17  O1  UNL     1      18.716 -10.269   1.826  0.00  0.00    +0.000 OA
BRANCH  16  18
ATOM     18  C3  UNL     1      16.930 -10.073   3.433  0.00  0.00    +0.000 C 
BRANCH  18  20
ATOM     19  C1  UNL     1      14.759 -10.193   2.116  0.00  0.00    +0.000 C 
ATOM     20  C2  UNL     1      15.626  -9.368   3.058  0.00  0.00    +0.000 C 
ENDBRANCH  18  20
ENDBRANCH  16  18
ENDBRANCH   1  16
TORSDOF 5
ENDMDL
MODEL 5
REMARK VINA RESULT:    -5.289      1.778      2.381
REMARK INTER + INTRA:          -8.187
REMARK INTER:                  -6.764
REMARK INTRA:                  -1.423
REMARK UNBOUND:                -1.352
REMARK  Name = ligantes_geracao2\Derivado_014.pdb
REMARK  8 active torsions:
REMARK  status: ('A' for Active; 'I' for Inactive)
REMARK    1  A    between atoms: C1_1  and  C2_2
REMARK    2  A    between atoms: C2_2  and  C3_3
REMARK    3  A    between atoms: C3_3  and  C4_4
REMARK    4  A    between atoms: C4_4  and  C5_6
REMARK    5  A    between atoms: C6_7  and  C7_8
REMARK    6  A    between atoms: C10_11  and  C11_12
REMARK    7  A    between atoms: C13_15  and  C14_16
REMARK    8  A    between atoms: C16_18  and  C17_19
REMARK                            x       y       z     vdW  Elec       q    Type
REMARK                         _______ _______ _______ _____ _____    ______ ____
ROOT
ATOM      1  C5  UNL     1       1.903  -0.374  20.372  0.00  0.00    +0.000 C 
ATOM      2  C6  UNL     1       2.624  -0.412  21.740  0.00  0.00    +0.000 C 
ATOM      3  C7  UNL     1       2.650   0.877  22.546  0.00  0.00    +0.000 C 
ATOM      4  C8  UNL     1       1.981  -1.577  22.488  0.00  0.00    +0.000 C 
ATOM      5  C9  UNL     1       1.773  -2.608  21.389  0.00  0.00    +0.000 C 
ATOM      6  C10 UNL     1       1.260  -1.777  20.198  0.00  0.00    +0.000 C 
ENDROOT
BRANCH   6   7
ATOM      7  C11 UNL     1       1.535  -2.416  18.851  0.00  0.00    +0.000 C 
ATOM      8  C12 UNL     1       2.674  -3.190  18.648  0.00  0.00    +0.000 C 
ATOM      9  N1  UNL     1       3.000  -3.794  17.483  0.00  0.00    +0.000 NA
ATOM     10  C13 UNL     1       2.171  -3.629  16.433  0.00  0.00    +0.000 C 
ATOM     11  C14 UNL     1       2.542  -4.302  15.146  0.00  0.00    +0.000 C 
ATOM     12  C15 UNL     1       1.011  -2.875  16.521  0.00  0.00    +0.000 C 
ATOM     13  C16 UNL     1       0.690  -2.262  17.738  0.00  0.00    +0.000 C 
BRANCH  13  14
ATOM     14  C17 UNL     1      -0.514  -1.484  17.798  0.00  0.00    +0.000 C 
ATOM     15  N2  UNL     1      -1.477  -0.840  17.852  0.00  0.00    +0.000 NA
ENDBRANCH  13  14
ENDBRANCH   6   7
BRANCH   1  16
ATOM     16  C4  UNL     1       0.922   0.790  20.193  0.00  0.00    +0.000 C 
ATOM     17  O1  UNL     1      -0.221   0.683  20.645  0.00  0.00    +0.000 OA
BRANCH  16  18
ATOM     18  C3  UNL     1       1.369   2.039  19.444  0.00  0.00    +0.000 C 
BRANCH  18  20
ATOM     19  C1  UNL     1       1.929   1.237  17.098  0.00  0.00    +0.000 C 
ATOM     20  C2  UNL     1       2.470   1.772  18.417  0.00  0.00    +0.000 C 
ENDBRANCH  18  20
ENDBRANCH  16  18
ENDBRANCH   1  16
TORSDOF 5
ENDMDL
MODEL 6
REMARK VINA RESULT:    -5.274     25.217     26.816
REMARK INTER + INTRA:          -8.168
REMARK INTER:                  -7.129
REMARK INTRA:                  -1.039
REMARK UNBOUND:                -1.352
REMARK  Name = ligantes_geracao2\Derivado_014.pdb
REMARK  8 active torsions:
REMARK  status: ('A' for Active; 'I' for Inactive)
REMARK    1  A    between atoms: C1_1  and  C2_2
REMARK    2  A    between atoms: C2_2  and  C3_3
REMARK    3  A    between atoms: C3_3  and  C4_4
REMARK    4  A    between atoms: C4_4  and  C5_6
REMARK    5  A    between atoms: C6_7  and  C7_8
REMARK    6  A    between atoms: C10_11  and  C11_12
REMARK    7  A    between atoms: C13_15  and  C14_16
REMARK    8  A    between atoms: C16_18  and  C17_19
REMARK                            x       y       z     vdW  Elec       q    Type
REMARK                         _______ _______ _______ _____ _____    ______ ____
ROOT
ATOM      1  C5  UNL     1      16.524  -7.403   1.166  0.00  0.00    +0.000 C 
ATOM      2  C6  UNL     1      15.396  -7.908   2.095  0.00  0.00    +0.000 C 
ATOM      3  C7  UNL     1      15.552  -7.642   3.584  0.00  0.00    +0.000 C 
ATOM      4  C8  UNL     1      14.115  -7.318   1.510  0.00  0.00    +0.000 C 
ATOM      5  C9  UNL     1      14.354  -7.415   0.011  0.00  0.00    +0.000 C 
ATOM      6  C10 UNL     1      15.824  -6.984  -0.155  0.00  0.00    +0.000 C 
ENDROOT
BRANCH   6   7
ATOM      7  C11 UNL     1      16.482  -7.540  -1.403  0.00  0.00    +0.000 C 
ATOM      8  C12 UNL     1      16.191  -8.827  -1.849  0.00  0.00    +0.000 C 
ATOM      9  N1  UNL     1      16.729  -9.404  -2.946  0.00  0.00    +0.000 NA
ATOM     10  C13 UNL     1      17.625  -8.691  -3.659  0.00  0.00    +0.000 C 
ATOM     11  C14 UNL     1      18.217  -9.341  -4.872  0.00  0.00    +0.000 C 
ATOM     12  C15 UNL     1      17.992  -7.402  -3.303  0.00  0.00    +0.000 C 
ATOM     13  C16 UNL     1      17.418  -6.822  -2.165  0.00  0.00    +0.000 C 
BRANCH  13  14
ATOM     14  C17 UNL     1      17.822  -5.490  -1.819  0.00  0.00    +0.000 C 
ATOM     15  N2  UNL     1      18.161  -4.413  -1.553  0.00  0.00    +0.000 NA
ENDBRANCH  13  14
ENDBRANCH   6   7
BRANCH   1  16
ATOM     16  C4  UNL     1      17.419  -6.317   1.772  0.00  0.00    +0.000 C 
ATOM     17  O1  UNL     1      16.964  -5.179   1.916  0.00  0.00    +0.000 OA
BRANCH  16  18
ATOM     18  C3  UNL     1      18.853  -6.656   2.160  0.00  0.00    +0.000 C 
BRANCH  18  20
ATOM     19  C1  UNL     1      20.282  -4.555   2.167  0.00  0.00    +0.000 C 
ATOM     20  C2  UNL     1      19.899  -5.824   1.418  0.00  0.00    +0.000 C 
ENDBRANCH  18  20
ENDBRANCH  16  18
ENDBRANCH   1  16
TORSDOF 5
ENDMDL
MODEL 7
REMARK VINA RESULT:    -5.226     23.788     25.685
REMARK INTER + INTRA:          -8.105
REMARK INTER:                  -6.673
REMARK INTRA:                  -1.432
REMARK UNBOUND:                -1.352
REMARK  Name = ligantes_geracao2\Derivado_014.pdb
REMARK  8 active torsions:
REMARK  status: ('A' for Active; 'I' for Inactive)
REMARK    1  A    between atoms: C1_1  and  C2_2
REMARK    2  A    between atoms: C2_2  and  C3_3
REMARK    3  A    between atoms: C3_3  and  C4_4
REMARK    4  A    between atoms: C4_4  and  C5_6
REMARK    5  A    between atoms: C6_7  and  C7_8
REMARK    6  A    between atoms: C10_11  and  C11_12
REMARK    7  A    between atoms: C13_15  and  C14_16
REMARK    8  A    between atoms: C16_18  and  C17_19
REMARK                            x       y       z     vdW  Elec       q    Type
REMARK                         _______ _______ _______ _____ _____    ______ ____
ROOT
ATOM      1  C5  UNL     1      15.850  -8.600   0.834  0.00  0.00    +0.000 C 
ATOM      2  C6  UNL     1      14.889  -9.721   1.294  0.00  0.00    +0.000 C 
ATOM      3  C7  UNL     1      14.673 -10.884   0.338  0.00  0.00    +0.000 C 
ATOM      4  C8  UNL     1      15.419 -10.154   2.659  0.00  0.00    +0.000 C 
ATOM      5  C9  UNL     1      15.859  -8.838   3.281  0.00  0.00    +0.000 C 
ATOM      6  C10 UNL     1      16.558  -8.100   2.123  0.00  0.00    +0.000 C 
ENDROOT
BRANCH   6   7
ATOM      7  C11 UNL     1      16.559  -6.592   2.278  0.00  0.00    +0.000 C 
ATOM      8  C12 UNL     1      15.469  -5.932   2.840  0.00  0.00    +0.000 C 
ATOM      9  N1  UNL     1      15.382  -4.595   3.015  0.00  0.00    +0.000 NA
ATOM     10  C13 UNL     1      16.419  -3.836   2.607  0.00  0.00    +0.000 C 
ATOM     11  C14 UNL     1      16.312  -2.355   2.804  0.00  0.00    +0.000 C 
ATOM     12  C15 UNL     1      17.554  -4.387   2.030  0.00  0.00    +0.000 C 
ATOM     13  C16 UNL     1      17.624  -5.775   1.862  0.00  0.00    +0.000 C 
BRANCH  13  14
ATOM     14  C17 UNL     1      18.808  -6.316   1.258  0.00  0.00    +0.000 C 
ATOM     15  N2  UNL     1      19.766  -6.738   0.759  0.00  0.00    +0.000 NA
ENDBRANCH  13  14
ENDBRANCH   6   7
BRANCH   1  16
ATOM     16  C4  UNL     1      16.810  -8.996  -0.293  0.00  0.00    +0.000 C 
ATOM     17  O1  UNL     1      17.782  -9.707  -0.028  0.00  0.00    +0.000 OA
BRANCH  16  18
ATOM     18  C3  UNL     1      16.557  -8.487  -1.706  0.00  0.00    +0.000 C 
BRANCH  18  20
ATOM     19  C1  UNL     1      16.550  -5.945  -1.751  0.00  0.00    +0.000 C 
ATOM     20  C2  UNL     1      17.337  -7.215  -2.045  0.00  0.00    +0.000 C 
ENDBRANCH  18  20
ENDBRANCH  16  18
ENDBRANCH   1  16
TORSDOF 5
ENDMDL
MODEL 8
REMARK VINA RESULT:    -5.186     24.685     26.286
REMARK INTER + INTRA:          -8.053
REMARK INTER:                  -6.662
REMARK INTRA:                  -1.392
REMARK UNBOUND:                -1.352
REMARK  Name = ligantes_geracao2\Derivado_014.pdb
REMARK  8 active torsions:
REMARK  status: ('A' for Active; 'I' for Inactive)
REMARK    1  A    between atoms: C1_1  and  C2_2
REMARK    2  A    between atoms: C2_2  and  C3_3
REMARK    3  A    between atoms: C3_3  and  C4_4
REMARK    4  A    between atoms: C4_4  and  C5_6
REMARK    5  A    between atoms: C6_7  and  C7_8
REMARK    6  A    between atoms: C10_11  and  C11_12
REMARK    7  A    between atoms: C13_15  and  C14_16
REMARK    8  A    between atoms: C16_18  and  C17_19
REMARK                            x       y       z     vdW  Elec       q    Type
REMARK                         _______ _______ _______ _____ _____    ______ ____
ROOT
ATOM      1  C5  UNL     1      17.975  -7.125   0.324  0.00  0.00    +0.000 C 
ATOM      2  C6  UNL     1      17.958  -5.743  -0.367  0.00  0.00    +0.000 C 
ATOM      3  C7  UNL     1      17.075  -5.592  -1.596  0.00  0.00    +0.000 C 
ATOM      4  C8  UNL     1      17.616  -4.754   0.745  0.00  0.00    +0.000 C 
ATOM      5  C9  UNL     1      18.374  -5.314   1.938  0.00  0.00    +0.000 C 
ATOM      6  C10 UNL     1      18.140  -6.834   1.841  0.00  0.00    +0.000 C 
ENDROOT
BRANCH   6   7
ATOM      7  C11 UNL     1      19.223  -7.658   2.511  0.00  0.00    +0.000 C 
ATOM      8  C12 UNL     1      20.566  -7.320   2.368  0.00  0.00    +0.000 C 
ATOM      9  N1  UNL     1      21.596  -7.996   2.925  0.00  0.00    +0.000 NA
ATOM     10  C13 UNL     1      21.308  -9.086   3.666  0.00  0.00    +0.000 C 
ATOM     11  C14 UNL     1      22.456  -9.829   4.278  0.00  0.00    +0.000 C 
ATOM     12  C15 UNL     1      20.006  -9.516   3.870  0.00  0.00    +0.000 C 
ATOM     13  C16 UNL     1      18.955  -8.798   3.287  0.00  0.00    +0.000 C 
BRANCH  13  14
ATOM     14  C17 UNL     1      17.618  -9.269   3.511  0.00  0.00    +0.000 C 
ATOM     15  N2  UNL     1      16.544  -9.668   3.694  0.00  0.00    +0.000 NA
ENDBRANCH  13  14
ENDBRANCH   6   7
BRANCH   1  16
ATOM     16  C4  UNL     1      16.784  -8.029  -0.012  0.00  0.00    +0.000 C 
ATOM     17  O1  UNL     1      16.884  -8.826  -0.949  0.00  0.00    +0.000 OA
BRANCH  16  18
ATOM     18  C3  UNL     1      15.499  -7.909   0.798  0.00  0.00    +0.000 C 
BRANCH  18  20
ATOM     19  C1  UNL     1      14.029  -5.845   0.599  0.00  0.00    +0.000 C 
ATOM     20  C2  UNL     1      14.363  -7.222   0.040  0.00  0.00    +0.000 C 
ENDBRANCH  18  20
ENDBRANCH  16  18
ENDBRANCH   1  16
TORSDOF 5
ENDMDL
MODEL 9
REMARK VINA RESULT:    -5.174      2.521      3.805
REMARK INTER + INTRA:          -8.037
REMARK INTER:                  -6.912
REMARK INTRA:                  -1.125
REMARK UNBOUND:                -1.352
REMARK  Name = ligantes_geracao2\Derivado_014.pdb
REMARK  8 active torsions:
REMARK  status: ('A' for Active; 'I' for Inactive)
REMARK    1  A    between atoms: C1_1  and  C2_2
REMARK    2  A    between atoms: C2_2  and  C3_3
REMARK    3  A    between atoms: C3_3  and  C4_4
REMARK    4  A    between atoms: C4_4  and  C5_6
REMARK    5  A    between atoms: C6_7  and  C7_8
REMARK    6  A    between atoms: C10_11  and  C11_12
REMARK    7  A    between atoms: C13_15  and  C14_16
REMARK    8  A    between atoms: C16_18  and  C17_19
REMARK                            x       y       z     vdW  Elec       q    Type
REMARK                         _______ _______ _______ _____ _____    ______ ____
ROOT
ATOM      1  C5  UNL     1       1.822  -1.150  19.913  0.00  0.00    +0.000 C 
ATOM      2  C6  UNL     1       1.907  -1.938  21.240  0.00  0.00    +0.000 C 
ATOM      3  C7  UNL     1       1.951  -1.128  22.527  0.00  0.00    +0.000 C 
ATOM      4  C8  UNL     1       0.738  -2.920  21.187  0.00  0.00    +0.000 C 
ATOM      5  C9  UNL     1       0.717  -3.338  19.725  0.00  0.00    +0.000 C 
ATOM      6  C10 UNL     1       0.955  -2.020  18.963  0.00  0.00    +0.000 C 
ENDROOT
BRANCH   6   7
ATOM      7  C11 UNL     1       1.559  -2.216  17.586  0.00  0.00    +0.000 C 
ATOM      8  C12 UNL     1       2.514  -3.205  17.362  0.00  0.00    +0.000 C 
ATOM      9  N1  UNL     1       3.107  -3.450  16.172  0.00  0.00    +0.000 NA
ATOM     10  C13 UNL     1       2.762  -2.675  15.123  0.00  0.00    +0.000 C 
ATOM     11  C14 UNL     1       3.425  -2.954  13.810  0.00  0.00    +0.000 C 
ATOM     12  C15 UNL     1       1.825  -1.659  15.234  0.00  0.00    +0.000 C 
ATOM     13  C16 UNL     1       1.220  -1.426  16.475  0.00  0.00    +0.000 C 
BRANCH  13  14
ATOM     14  C17 UNL     1       0.258  -0.365  16.561  0.00  0.00    +0.000 C 
ATOM     15  N2  UNL     1      -0.518   0.495  16.612  0.00  0.00    +0.000 NA
ENDBRANCH  13  14
ENDBRANCH   6   7
BRANCH   1  16
ATOM     16  C4  UNL     1       1.336   0.297  20.053  0.00  0.00    +0.000 C 
ATOM     17  O1  UNL     1       0.163   0.505  20.373  0.00  0.00    +0.000 OA
BRANCH  16  18
ATOM     18  C3  UNL     1       2.301   1.442  19.773  0.00  0.00    +0.000 C 
BRANCH  18  20
ATOM     19  C1  UNL     1       3.911   1.896  21.687  0.00  0.00    +0.000 C 
ATOM     20  C2  UNL     1       2.609   2.294  21.005  0.00  0.00    +0.000 C 
ENDBRANCH  18  20
ENDBRANCH  16  18
ENDBRANCH   1  16
TORSDOF 5
ENDMDL
