MODEL 1
REMARK VINA RESULT:    -6.518      0.000      0.000
REMARK INTER + INTRA:          -9.545
REMARK INTER:                  -8.614
REMARK INTRA:                  -0.931
REMARK UNBOUND:                -0.931
REMARK  Name = ligantes_geracao2\Derivado_003.pdb
REMARK  10 active torsions:
REMARK  status: ('A' for Active; 'I' for Inactive)
REMARK    1  A    between atoms: C1_1  and  C2_2
REMARK    2  A    between atoms: C2_2  and  C3_3
REMARK    3  A    between atoms: C2_2  and  C4_4
REMARK    4  A    between atoms: C4_4  and  C5_5
REMARK    5  A    between atoms: C4_4  and  C6_6
REMARK    6  A    between atoms: C6_6  and  C7_8
REMARK    7  A    between atoms: C8_9  and  C9_10
REMARK    8  A    between atoms: C12_13  and  C13_14
REMARK    9  A    between atoms: C17_19  and  C18_20
REMARK   10  A    between atoms: N2_21  and  O2_22
REMARK                            x       y       z     vdW  Elec       q    Type
REMARK                         _______ _______ _______ _____ _____    ______ ____
ROOT
ATOM      1  C7  UNL     1      21.269  18.609  18.071  0.00  0.00    +0.000 C 
ATOM      2  C8  UNL     1      22.744  19.069  18.144  0.00  0.00    +0.000 C 
ATOM      3  C9  UNL     1      23.714  17.888  18.118  0.00  0.00    +0.000 C 
ATOM      4  C10 UNL     1      22.940  19.995  16.927  0.00  0.00    +0.000 C 
ATOM      5  C11 UNL     1      21.665  19.906  16.086  0.00  0.00    +0.000 C 
ATOM      6  C12 UNL     1      20.982  18.615  16.549  0.00  0.00    +0.000 C 
ENDROOT
BRANCH   6   7
ATOM      7  C13 UNL     1      19.605  18.379  15.963  0.00  0.00    +0.000 C 
ATOM      8  C14 UNL     1      19.023  19.240  15.036  0.00  0.00    +0.000 C 
ATOM      9  N1  UNL     1      17.790  19.095  14.492  0.00  0.00    +0.000 NA
ATOM     10  C15 UNL     1      17.078  18.019  14.862  0.00  0.00    +0.000 C 
ATOM     11  C16 UNL     1      17.534  17.092  15.770  0.00  0.00    +0.000 C 
ATOM     12  C17 UNL     1      18.802  17.276  16.335  0.00  0.00    +0.000 C 
BRANCH  12  13
ATOM     13  C18 UNL     1      19.232  16.287  17.355  0.00  0.00    +0.000 C 
ATOM     14  N2  UNL     1      18.386  15.541  17.997  0.00  0.00    +0.000 NA
BRANCH  14  15
ATOM     15  O2  UNL     1      19.088  14.722  18.889  0.00  0.00    +0.000 OA
ATOM     16  H   UNL     1      19.866  15.039  19.303  0.00  0.00    +0.000 HD
ENDBRANCH  14  15
ENDBRANCH  12  13
ENDBRANCH   6   7
BRANCH   1  17
ATOM     17  C6  UNL     1      20.470  19.567  18.964  0.00  0.00    +0.000 C 
ATOM     18  O1  UNL     1      19.856  20.526  18.501  0.00  0.00    +0.000 OA
BRANCH  17  19
ATOM     19  C4  UNL     1      20.494  19.271  20.471  0.00  0.00    +0.000 C 
ATOM     20  C5  UNL     1      21.483  20.213  21.154  0.00  0.00    +0.000 C 
BRANCH  19  22
ATOM     21  C1  UNL     1      19.523  17.148  21.466  0.00  0.00    +0.000 C 
ATOM     22  C2  UNL     1      20.732  17.765  20.754  0.00  0.00    +0.000 C 
ATOM     23  C3  UNL     1      21.998  17.470  21.566  0.00  0.00    +0.000 C 
ENDBRANCH  19  22
ENDBRANCH  17  19
ENDBRANCH   1  17
TORSDOF 6
ENDMDL
MODEL 2
REMARK VINA RESULT:    -6.442     24.367     27.254
REMARK INTER + INTRA:          -9.444
REMARK INTER:                  -8.193
REMARK INTRA:                  -1.250
REMARK UNBOUND:                -0.931
REMARK  Name = ligantes_geracao2\Derivado_003.pdb
REMARK  10 active torsions:
REMARK  status: ('A' for Active; 'I' for Inactive)
REMARK    1  A    between atoms: C1_1  and  C2_2
REMARK    2  A    between atoms: C2_2  and  C3_3
REMARK    3  A    between atoms: C2_2  and  C4_4
REMARK    4  A    between atoms: C4_4  and  C5_5
REMARK    5  A    between atoms: C4_4  and  C6_6
REMARK    6  A    between atoms: C6_6  and  C7_8
REMARK    7  A    between atoms: C8_9  and  C9_10
REMARK    8  A    between atoms: C12_13  and  C13_14
REMARK    9  A    between atoms: C17_19  and  C18_20
REMARK   10  A    between atoms: N2_21  and  O2_22
REMARK                            x       y       z     vdW  Elec       q    Type
REMARK                         _______ _______ _______ _____ _____    ______ ____
ROOT
ATOM      1  C7  UNL     1      -0.209  -0.993  19.824  0.00  0.00    +0.000 C 
ATOM      2  C8  UNL     1      -1.746  -1.171  19.793  0.00  0.00    +0.000 C 
ATOM      3  C9  UNL     1      -2.244  -2.051  20.939  0.00  0.00    +0.000 C 
ATOM      4  C10 UNL     1      -2.321   0.256  19.877  0.00  0.00    +0.000 C 
ATOM      5  C11 UNL     1      -1.146   1.199  20.142  0.00  0.00    +0.000 C 
ATOM      6  C12 UNL     1      -0.031   0.291  20.672  0.00  0.00    +0.000 C 
ENDROOT
BRANCH   6   7
ATOM      7  C13 UNL     1       1.306   0.976  20.869  0.00  0.00    +0.000 C 
ATOM      8  C14 UNL     1       1.658   2.147  20.203  0.00  0.00    +0.000 C 
ATOM      9  N1  UNL     1       2.843   2.795  20.321  0.00  0.00    +0.000 NA
ATOM     10  C15 UNL     1       3.746   2.275  21.167  0.00  0.00    +0.000 C 
ATOM     11  C16 UNL     1       3.526   1.121  21.884  0.00  0.00    +0.000 C 
ATOM     12  C17 UNL     1       2.303   0.459  21.728  0.00  0.00    +0.000 C 
BRANCH  12  13
ATOM     13  C18 UNL     1       2.130  -0.813  22.474  0.00  0.00    +0.000 C 
ATOM     14  N2  UNL     1       2.546  -1.951  22.010  0.00  0.00    +0.000 NA
BRANCH  14  15
ATOM     15  O2  UNL     1       2.233  -2.959  22.930  0.00  0.00    +0.000 OA
ATOM     16  H   UNL     1       2.908  -3.518  23.260  0.00  0.00    +0.000 HD
ENDBRANCH  14  15
ENDBRANCH  12  13
ENDBRANCH   6   7
BRANCH   1  17
ATOM     17  C6  UNL     1       0.255  -0.968  18.362  0.00  0.00    +0.000 C 
ATOM     18  O1  UNL     1      -0.537  -0.837  17.431  0.00  0.00    +0.000 OA
BRANCH  17  19
ATOM     19  C4  UNL     1       1.764  -1.130  18.125  0.00  0.00    +0.000 C 
ATOM     20  C5  UNL     1       2.262   0.014  17.245  0.00  0.00    +0.000 C 
BRANCH  19  22
ATOM     21  C1  UNL     1       2.372  -3.508  18.769  0.00  0.00    +0.000 C 
ATOM     22  C2  UNL     1       2.111  -2.548  17.603  0.00  0.00    +0.000 C 
ATOM     23  C3  UNL     1       3.303  -2.590  16.640  0.00  0.00    +0.000 C 
ENDBRANCH  19  22
ENDBRANCH  17  19
ENDBRANCH   1  17
TORSDOF 6
ENDMDL
MODEL 3
REMARK VINA RESULT:    -6.360      3.153      5.563
REMARK INTER + INTRA:          -9.336
REMARK INTER:                  -8.862
REMARK INTRA:                  -0.474
REMARK UNBOUND:                -0.931
REMARK  Name = ligantes_geracao2\Derivado_003.pdb
REMARK  10 active torsions:
REMARK  status: ('A' for Active; 'I' for Inactive)
REMARK    1  A    between atoms: C1_1  and  C2_2
REMARK    2  A    between atoms: C2_2  and  C3_3
REMARK    3  A    between atoms: C2_2  and  C4_4
REMARK    4  A    between atoms: C4_4  and  C5_5
REMARK    5  A    between atoms: C4_4  and  C6_6
REMARK    6  A    between atoms: C6_6  and  C7_8
REMARK    7  A    between atoms: C8_9  and  C9_10
REMARK    8  A    between atoms: C12_13  and  C13_14
REMARK    9  A    between atoms: C17_19  and  C18_20
REMARK   10  A    between atoms: N2_21  and  O2_22
REMARK                            x       y       z     vdW  Elec       q    Type
REMARK                         _______ _______ _______ _____ _____    ______ ____
ROOT
ATOM      1  C7  UNL     1      21.009  20.685  18.456  0.00  0.00    +0.000 C 
ATOM      2  C8  UNL     1      19.851  21.554  17.912  0.00  0.00    +0.000 C 
ATOM      3  C9  UNL     1      19.142  20.889  16.733  0.00  0.00    +0.000 C 
ATOM      4  C10 UNL     1      18.901  21.758  19.108  0.00  0.00    +0.000 C 
ATOM      5  C11 UNL     1      19.411  20.869  20.243  0.00  0.00    +0.000 C 
ATOM      6  C12 UNL     1      20.318  19.843  19.557  0.00  0.00    +0.000 C 
ENDROOT
BRANCH   6   7
ATOM      7  C13 UNL     1      21.073  18.930  20.501  0.00  0.00    +0.000 C 
ATOM      8  C14 UNL     1      22.453  18.757  20.438  0.00  0.00    +0.000 C 
ATOM      9  N1  UNL     1      23.182  17.941  21.239  0.00  0.00    +0.000 NA
ATOM     10  C15 UNL     1      22.521  17.259  22.186  0.00  0.00    +0.000 C 
ATOM     11  C16 UNL     1      21.157  17.337  22.355  0.00  0.00    +0.000 C 
ATOM     12  C17 UNL     1      20.424  18.169  21.501  0.00  0.00    +0.000 C 
BRANCH  12  13
ATOM     13  C18 UNL     1      18.950  18.179  21.678  0.00  0.00    +0.000 C 
ATOM     14  N2  UNL     1      18.268  17.093  21.871  0.00  0.00    +0.000 NA
BRANCH  14  15
ATOM     15  O2  UNL     1      16.912  17.423  21.993  0.00  0.00    +0.000 OA
ATOM     16  H   UNL     1      16.303  16.789  22.315  0.00  0.00    +0.000 HD
ENDBRANCH  14  15
ENDBRANCH  12  13
ENDBRANCH   6   7
BRANCH   1  17
ATOM     17  C6  UNL     1      22.120  21.656  18.876  0.00  0.00    +0.000 C 
ATOM     18  O1  UNL     1      22.065  22.289  19.929  0.00  0.00    +0.000 OA
BRANCH  17  19
ATOM     19  C4  UNL     1      23.298  21.803  17.902  0.00  0.00    +0.000 C 
ATOM     20  C5  UNL     1      23.313  23.224  17.340  0.00  0.00    +0.000 C 
BRANCH  19  22
ATOM     21  C1  UNL     1      24.437  19.689  17.084  0.00  0.00    +0.000 C 
ATOM     22  C2  UNL     1      23.298  20.683  16.830  0.00  0.00    +0.000 C 
ATOM     23  C3  UNL     1      23.386  21.191  15.387  0.00  0.00    +0.000 C 
ENDBRANCH  19  22
ENDBRANCH  17  19
ENDBRANCH   1  17
TORSDOF 6
ENDMDL
MODEL 4
REMARK VINA RESULT:    -6.287     28.002     30.475
REMARK INTER + INTRA:          -9.240
REMARK INTER:                  -8.010
REMARK INTRA:                  -1.231
REMARK UNBOUND:                -0.931
REMARK  Name = ligantes_geracao2\Derivado_003.pdb
REMARK  10 active torsions:
REMARK  status: ('A' for Active; 'I' for Inactive)
REMARK    1  A    between atoms: C1_1  and  C2_2
REMARK    2  A    between atoms: C2_2  and  C3_3
REMARK    3  A    between atoms: C2_2  and  C4_4
REMARK    4  A    between atoms: C4_4  and  C5_5
REMARK    5  A    between atoms: C4_4  and  C6_6
REMARK    6  A    between atoms: C6_6  and  C7_8
REMARK    7  A    between atoms: C8_9  and  C9_10
REMARK    8  A    between atoms: C12_13  and  C13_14
REMARK    9  A    between atoms: C17_19  and  C18_20
REMARK   10  A    between atoms: N2_21  and  O2_22
REMARK                            x       y       z     vdW  Elec       q    Type
REMARK                         _______ _______ _______ _____ _____    ______ ____
ROOT
ATOM      1  C7  UNL     1      17.462  -6.193  -0.142  0.00  0.00    +0.000 C 
ATOM      2  C8  UNL     1      17.239  -6.067  -1.668  0.00  0.00    +0.000 C 
ATOM      3  C9  UNL     1      18.307  -5.197  -2.332  0.00  0.00    +0.000 C 
ATOM      4  C10 UNL     1      17.267  -7.512  -2.203  0.00  0.00    +0.000 C 
ATOM      5  C11 UNL     1      17.684  -8.413  -1.040  0.00  0.00    +0.000 C 
ATOM      6  C12 UNL     1      18.338  -7.466  -0.028  0.00  0.00    +0.000 C 
ENDROOT
BRANCH   6   7
ATOM      7  C13 UNL     1      18.705  -8.104   1.295  0.00  0.00    +0.000 C 
ATOM      8  C14 UNL     1      18.134  -9.292   1.743  0.00  0.00    +0.000 C 
ATOM      9  N1  UNL     1      18.405  -9.902   2.923  0.00  0.00    +0.000 NA
ATOM     10  C15 UNL     1      19.317  -9.321   3.719  0.00  0.00    +0.000 C 
ATOM     11  C16 UNL     1      19.954  -8.145   3.398  0.00  0.00    +0.000 C 
ATOM     12  C17 UNL     1      19.640  -7.524   2.183  0.00  0.00    +0.000 C 
BRANCH  12  13
ATOM     13  C18 UNL     1      20.306  -6.227   1.902  0.00  0.00    +0.000 C 
ATOM     14  N2  UNL     1      19.818  -5.095   2.308  0.00  0.00    +0.000 NA
BRANCH  14  15
ATOM     15  O2  UNL     1      20.660  -4.059   1.885  0.00  0.00    +0.000 OA
ATOM     16  H   UNL     1      21.329  -4.229   1.252  0.00  0.00    +0.000 HD
ENDBRANCH  14  15
ENDBRANCH  12  13
ENDBRANCH   6   7
BRANCH   1  17
ATOM     17  C6  UNL     1      16.069  -6.212   0.500  0.00  0.00    +0.000 C 
ATOM     18  O1  UNL     1      15.051  -6.405  -0.163  0.00  0.00    +0.000 OA
BRANCH  17  19
ATOM     19  C4  UNL     1      16.015  -5.960   2.014  0.00  0.00    +0.000 C 
ATOM     20  C5  UNL     1      15.284  -7.118   2.691  0.00  0.00    +0.000 C 
BRANCH  19  22
ATOM     21  C1  UNL     1      16.580  -3.558   2.606  0.00  0.00    +0.000 C 
ATOM     22  C2  UNL     1      15.446  -4.555   2.340  0.00  0.00    +0.000 C 
ATOM     23  C3  UNL     1      14.468  -4.530   3.520  0.00  0.00    +0.000 C 
ENDBRANCH  19  22
ENDBRANCH  17  19
ENDBRANCH   1  17
TORSDOF 6
ENDMDL
MODEL 5
REMARK VINA RESULT:    -6.284     29.001     31.586
REMARK INTER + INTRA:          -9.236
REMARK INTER:                  -7.739
REMARK INTRA:                  -1.496
REMARK UNBOUND:                -0.931
REMARK  Name = ligantes_geracao2\Derivado_003.pdb
REMARK  10 active torsions:
REMARK  status: ('A' for Active; 'I' for Inactive)
REMARK    1  A    between atoms: C1_1  and  C2_2
REMARK    2  A    between atoms: C2_2  and  C3_3
REMARK    3  A    between atoms: C2_2  and  C4_4
REMARK    4  A    between atoms: C4_4  and  C5_5
REMARK    5  A    between atoms: C4_4  and  C6_6
REMARK    6  A    between atoms: C6_6  and  C7_8
REMARK    7  A    between atoms: C8_9  and  C9_10
REMARK    8  A    between atoms: C12_13  and  C13_14
REMARK    9  A    between atoms: C17_19  and  C18_20
REMARK   10  A    between atoms: N2_21  and  O2_22
REMARK                            x       y       z     vdW  Elec       q    Type
REMARK                         _______ _______ _______ _____ _____    ______ ____
ROOT
ATOM      1  C7  UNL     1      16.873  -9.148   1.021  0.00  0.00    +0.000 C 
ATOM      2  C8  UNL     1      16.847 -10.566   1.640  0.00  0.00    +0.000 C 
ATOM      3  C9  UNL     1      18.253 -11.099   1.908  0.00  0.00    +0.000 C 
ATOM      4  C10 UNL     1      16.031 -10.425   2.940  0.00  0.00    +0.000 C 
ATOM      5  C11 UNL     1      15.769  -8.932   3.146  0.00  0.00    +0.000 C 
ATOM      6  C12 UNL     1      16.808  -8.229   2.267  0.00  0.00    +0.000 C 
ENDROOT
BRANCH   6   7
ATOM      7  C13 UNL     1      16.655  -6.725   2.181  0.00  0.00    +0.000 C 
ATOM      8  C14 UNL     1      15.417  -6.090   2.224  0.00  0.00    +0.000 C 
ATOM      9  N1  UNL     1      15.213  -4.753   2.132  0.00  0.00    +0.000 NA
ATOM     10  C15 UNL     1      16.298  -3.973   2.010  0.00  0.00    +0.000 C 
ATOM     11  C16 UNL     1      17.580  -4.471   1.953  0.00  0.00    +0.000 C 
ATOM     12  C17 UNL     1      17.762  -5.858   2.027  0.00  0.00    +0.000 C 
BRANCH  12  13
ATOM     13  C18 UNL     1      19.154  -6.358   1.902  0.00  0.00    +0.000 C 
ATOM     14  N2  UNL     1      19.709  -6.580   0.751  0.00  0.00    +0.000 NA
BRANCH  14  15
ATOM     15  O2  UNL     1      21.012  -7.050   0.958  0.00  0.00    +0.000 OA
ATOM     16  H   UNL     1      21.208  -7.569   1.712  0.00  0.00    +0.000 HD
ENDBRANCH  14  15
ENDBRANCH  12  13
ENDBRANCH   6   7
BRANCH   1  17
ATOM     17  C6  UNL     1      15.716  -9.090   0.016  0.00  0.00    +0.000 C 
ATOM     18  O1  UNL     1      14.563  -9.370   0.337  0.00  0.00    +0.000 OA
BRANCH  17  19
ATOM     19  C4  UNL     1      16.081  -8.678  -1.418  0.00  0.00    +0.000 C 
ATOM     20  C5  UNL     1      16.639  -9.889  -2.163  0.00  0.00    +0.000 C 
BRANCH  19  22
ATOM     21  C1  UNL     1      16.158  -6.142  -1.415  0.00  0.00    +0.000 C 
ATOM     22  C2  UNL     1      16.995  -7.426  -1.438  0.00  0.00    +0.000 C 
ATOM     23  C3  UNL     1      17.964  -7.374  -2.624  0.00  0.00    +0.000 C 
ENDBRANCH  19  22
ENDBRANCH  17  19
ENDBRANCH   1  17
TORSDOF 6
ENDMDL
MODEL 6
REMARK VINA RESULT:    -6.256     27.437     29.985
REMARK INTER + INTRA:          -9.198
REMARK INTER:                  -7.758
REMARK INTRA:                  -1.441
REMARK UNBOUND:                -0.931
REMARK  Name = ligantes_geracao2\Derivado_003.pdb
REMARK  10 active torsions:
REMARK  status: ('A' for Active; 'I' for Inactive)
REMARK    1  A    between atoms: C1_1  and  C2_2
REMARK    2  A    between atoms: C2_2  and  C3_3
REMARK    3  A    between atoms: C2_2  and  C4_4
REMARK    4  A    between atoms: C4_4  and  C5_5
REMARK    5  A    between atoms: C4_4  and  C6_6
REMARK    6  A    between atoms: C6_6  and  C7_8
REMARK    7  A    between atoms: C8_9  and  C9_10
REMARK    8  A    between atoms: C12_13  and  C13_14
REMARK    9  A    between atoms: C17_19  and  C18_20
REMARK   10  A    between atoms: N2_21  and  O2_22
REMARK                            x       y       z     vdW  Elec       q    Type
REMARK                         _______ _______ _______ _____ _____    ______ ____
ROOT
ATOM      1  C7  UNL     1      18.229  -6.606   0.946  0.00  0.00    +0.000 C 
ATOM      2  C8  UNL     1      19.330  -7.402   1.685  0.00  0.00    +0.000 C 
ATOM      3  C9  UNL     1      20.356  -6.482   2.346  0.00  0.00    +0.000 C 
ATOM      4  C10 UNL     1      18.582  -8.261   2.723  0.00  0.00    +0.000 C 
ATOM      5  C11 UNL     1      17.118  -7.818   2.700  0.00  0.00    +0.000 C 
ATOM      6  C12 UNL     1      17.138  -6.439   2.033  0.00  0.00    +0.000 C 
ENDROOT
BRANCH   6   7
ATOM      7  C13 UNL     1      15.772  -5.847   1.754  0.00  0.00    +0.000 C 
ATOM      8  C14 UNL     1      14.720  -6.594   1.232  0.00  0.00    +0.000 C 
ATOM      9  N1  UNL     1      13.484  -6.119   0.942  0.00  0.00    +0.000 NA
ATOM     10  C15 UNL     1      13.248  -4.823   1.199  0.00  0.00    +0.000 C 
ATOM     11  C16 UNL     1      14.200  -3.973   1.712  0.00  0.00    +0.000 C 
ATOM     12  C17 UNL     1      15.476  -4.483   1.982  0.00  0.00    +0.000 C 
BRANCH  12  13
ATOM     13  C18 UNL     1      16.491  -3.520   2.479  0.00  0.00    +0.000 C 
ATOM     14  N2  UNL     1      16.190  -2.551   3.288  0.00  0.00    +0.000 NA
BRANCH  14  15
ATOM     15  O2  UNL     1      17.349  -1.816   3.568  0.00  0.00    +0.000 OA
ATOM     16  H   UNL     1      17.571  -1.074   3.042  0.00  0.00    +0.000 HD
ENDBRANCH  14  15
ENDBRANCH  12  13
ENDBRANCH   6   7
BRANCH   1  17
ATOM     17  C6  UNL     1      17.881  -7.411  -0.313  0.00  0.00    +0.000 C 
ATOM     18  O1  UNL     1      18.007  -8.633  -0.357  0.00  0.00    +0.000 OA
BRANCH  17  19
ATOM     19  C4  UNL     1      17.382  -6.603  -1.520  0.00  0.00    +0.000 C 
ATOM     20  C5  UNL     1      17.942  -7.214  -2.803  0.00  0.00    +0.000 C 
BRANCH  19  22
ATOM     21  C1  UNL     1      16.380  -4.272  -1.563  0.00  0.00    +0.000 C 
ATOM     22  C2  UNL     1      17.661  -5.087  -1.349  0.00  0.00    +0.000 C 
ATOM     23  C3  UNL     1      18.763  -4.543  -2.264  0.00  0.00    +0.000 C 
ENDBRANCH  19  22
ENDBRANCH  17  19
ENDBRANCH   1  17
TORSDOF 6
ENDMDL
MODEL 7
REMARK VINA RESULT:    -6.152     27.903     30.223
REMARK INTER + INTRA:          -9.061
REMARK INTER:                  -7.730
REMARK INTRA:                  -1.331
REMARK UNBOUND:                -0.931
REMARK  Name = ligantes_geracao2\Derivado_003.pdb
REMARK  10 active torsions:
REMARK  status: ('A' for Active; 'I' for Inactive)
REMARK    1  A    between atoms: C1_1  and  C2_2
REMARK    2  A    between atoms: C2_2  and  C3_3
REMARK    3  A    between atoms: C2_2  and  C4_4
REMARK    4  A    between atoms: C4_4  and  C5_5
REMARK    5  A    between atoms: C4_4  and  C6_6
REMARK    6  A    between atoms: C6_6  and  C7_8
REMARK    7  A    between atoms: C8_9  and  C9_10
REMARK    8  A    between atoms: C12_13  and  C13_14
REMARK    9  A    between atoms: C17_19  and  C18_20
REMARK   10  A    between atoms: N2_21  and  O2_22
REMARK                            x       y       z     vdW  Elec       q    Type
REMARK                         _______ _______ _______ _____ _____    ______ ____
ROOT
ATOM      1  C7  UNL     1      17.481  -5.716   1.818  0.00  0.00    +0.000 C 
ATOM      2  C8  UNL     1      18.673  -4.918   1.239  0.00  0.00    +0.000 C 
ATOM      3  C9  UNL     1      19.844  -4.846   2.218  0.00  0.00    +0.000 C 
ATOM      4  C10 UNL     1      19.059  -5.652  -0.060  0.00  0.00    +0.000 C 
ATOM      5  C11 UNL     1      18.232  -6.938  -0.110  0.00  0.00    +0.000 C 
ATOM      6  C12 UNL     1      17.765  -7.158   1.332  0.00  0.00    +0.000 C 
ENDROOT
BRANCH   6   7
ATOM      7  C13 UNL     1      16.791  -8.303   1.517  0.00  0.00    +0.000 C 
ATOM      8  C14 UNL     1      15.790  -8.598   0.595  0.00  0.00    +0.000 C 
ATOM      9  N1  UNL     1      14.877  -9.593   0.714  0.00  0.00    +0.000 NA
ATOM     10  C15 UNL     1      14.959 -10.375   1.802  0.00  0.00    +0.000 C 
ATOM     11  C16 UNL     1      15.898 -10.192   2.790  0.00  0.00    +0.000 C 
ATOM     12  C17 UNL     1      16.815  -9.143   2.655  0.00  0.00    +0.000 C 
BRANCH  12  13
ATOM     13  C18 UNL     1      17.774  -8.943   3.771  0.00  0.00    +0.000 C 
ATOM     14  N2  UNL     1      18.960  -9.468   3.769  0.00  0.00    +0.000 NA
BRANCH  14  15
ATOM     15  O2  UNL     1      19.619  -9.108   4.951  0.00  0.00    +0.000 OA
ATOM     16  H   UNL     1      19.277  -8.420   5.486  0.00  0.00    +0.000 HD
ENDBRANCH  14  15
ENDBRANCH  12  13
ENDBRANCH   6   7
BRANCH   1  17
ATOM     17  C6  UNL     1      16.208  -5.019   1.320  0.00  0.00    +0.000 C 
ATOM     18  O1  UNL     1      16.076  -4.669   0.149  0.00  0.00    +0.000 OA
BRANCH  17  19
ATOM     19  C4  UNL     1      15.114  -4.770   2.368  0.00  0.00    +0.000 C 
ATOM     20  C5  UNL     1      15.590  -3.699   3.349  0.00  0.00    +0.000 C 
BRANCH  19  22
ATOM     21  C1  UNL     1      13.299  -6.542   2.448  0.00  0.00    +0.000 C 
ATOM     22  C2  UNL     1      14.645  -6.092   3.030  0.00  0.00    +0.000 C 
ATOM     23  C3  UNL     1      14.536  -6.027   4.557  0.00  0.00    +0.000 C 
ENDBRANCH  19  22
ENDBRANCH  17  19
ENDBRANCH   1  17
TORSDOF 6
ENDMDL
MODEL 8
REMARK VINA RESULT:    -6.147     24.423     27.236
REMARK INTER + INTRA:          -9.055
REMARK INTER:                  -7.962
REMARK INTRA:                  -1.093
REMARK UNBOUND:                -0.931
REMARK  Name = ligantes_geracao2\Derivado_003.pdb
REMARK  10 active torsions:
REMARK  status: ('A' for Active; 'I' for Inactive)
REMARK    1  A    between atoms: C1_1  and  C2_2
REMARK    2  A    between atoms: C2_2  and  C3_3
REMARK    3  A    between atoms: C2_2  and  C4_4
REMARK    4  A    between atoms: C4_4  and  C5_5
REMARK    5  A    between atoms: C4_4  and  C6_6
REMARK    6  A    between atoms: C6_6  and  C7_8
REMARK    7  A    between atoms: C8_9  and  C9_10
REMARK    8  A    between atoms: C12_13  and  C13_14
REMARK    9  A    between atoms: C17_19  and  C18_20
REMARK   10  A    between atoms: N2_21  and  O2_22
REMARK                            x       y       z     vdW  Elec       q    Type
REMARK                         _______ _______ _______ _____ _____    ______ ____
ROOT
ATOM      1  C7  UNL     1       1.110  -1.132  18.024  0.00  0.00    +0.000 C 
ATOM      2  C8  UNL     1      -0.070  -1.052  17.026  0.00  0.00    +0.000 C 
ATOM      3  C9  UNL     1      -1.225  -1.968  17.430  0.00  0.00    +0.000 C 
ATOM      4  C10 UNL     1      -0.494   0.430  17.018  0.00  0.00    +0.000 C 
ATOM      5  C11 UNL     1       0.299   1.129  18.124  0.00  0.00    +0.000 C 
ATOM      6  C12 UNL     1       0.781  -0.005  19.034  0.00  0.00    +0.000 C 
ENDROOT
BRANCH   6   7
ATOM      7  C13 UNL     1       1.729   0.424  20.135  0.00  0.00    +0.000 C 
ATOM      8  C14 UNL     1       2.614   1.490  19.996  0.00  0.00    +0.000 C 
ATOM      9  N1  UNL     1       3.498   1.908  20.934  0.00  0.00    +0.000 NA
ATOM     10  C15 UNL     1       3.507   1.253  22.106  0.00  0.00    +0.000 C 
ATOM     11  C16 UNL     1       2.686   0.181  22.373  0.00  0.00    +0.000 C 
ATOM     12  C17 UNL     1       1.798  -0.246  21.379  0.00  0.00    +0.000 C 
BRANCH  12  13
ATOM     13  C18 UNL     1       0.973  -1.441  21.686  0.00  0.00    +0.000 C 
ATOM     14  N2  UNL     1       1.365  -2.645  21.404  0.00  0.00    +0.000 NA
BRANCH  14  15
ATOM     15  O2  UNL     1       0.376  -3.551  21.804  0.00  0.00    +0.000 OA
ATOM     16  H   UNL     1       0.606  -4.435  22.013  0.00  0.00    +0.000 HD
ENDBRANCH  14  15
ENDBRANCH  12  13
ENDBRANCH   6   7
BRANCH   1  17
ATOM     17  C6  UNL     1       2.392  -1.009  17.191  0.00  0.00    +0.000 C 
ATOM     18  O1  UNL     1       2.856   0.083  16.870  0.00  0.00    +0.000 OA
BRANCH  17  19
ATOM     19  C4  UNL     1       3.055  -2.328  16.766  0.00  0.00    +0.000 C 
ATOM     20  C5  UNL     1       3.203  -2.352  15.246  0.00  0.00    +0.000 C 
BRANCH  19  22
ATOM     21  C1  UNL     1       3.207  -4.266  18.397  0.00  0.00    +0.000 C 
ATOM     22  C2  UNL     1       2.322  -3.556  17.365  0.00  0.00    +0.000 C 
ATOM     23  C3  UNL     1       1.846  -4.574  16.324  0.00  0.00    +0.000 C 
ENDBRANCH  19  22
ENDBRANCH  17  19
ENDBRANCH   1  17
TORSDOF 6
ENDMDL
MODEL 9
REMARK VINA RESULT:    -6.121     24.309     27.195
REMARK INTER + INTRA:          -9.021
REMARK INTER:                  -7.613
REMARK INTRA:                  -1.408
REMARK UNBOUND:                -0.931
REMARK  Name = ligantes_geracao2\Derivado_003.pdb
REMARK  10 active torsions:
REMARK  status: ('A' for Active; 'I' for Inactive)
REMARK    1  A    between atoms: C1_1  and  C2_2
REMARK    2  A    between atoms: C2_2  and  C3_3
REMARK    3  A    between atoms: C2_2  and  C4_4
REMARK    4  A    between atoms: C4_4  and  C5_5
REMARK    5  A    between atoms: C4_4  and  C6_6
REMARK    6  A    between atoms: C6_6  and  C7_8
REMARK    7  A    between atoms: C8_9  and  C9_10
REMARK    8  A    between atoms: C12_13  and  C13_14
REMARK    9  A    between atoms: C17_19  and  C18_20
REMARK   10  A    between atoms: N2_21  and  O2_22
REMARK                            x       y       z     vdW  Elec       q    Type
REMARK                         _______ _______ _______ _____ _____    ______ ____
ROOT
ATOM      1  C7  UNL     1       1.432  -1.795  19.513  0.00  0.00    +0.000 C 
ATOM      2  C8  UNL     1       1.240  -2.410  20.920  0.00  0.00    +0.000 C 
ATOM      3  C9  UNL     1       2.334  -1.970  21.891  0.00  0.00    +0.000 C 
ATOM      4  C10 UNL     1      -0.154  -1.942  21.381  0.00  0.00    +0.000 C 
ATOM      5  C11 UNL     1      -0.654  -0.933  20.344  0.00  0.00    +0.000 C 
ATOM      6  C12 UNL     1       0.606  -0.486  19.596  0.00  0.00    +0.000 C 
ENDROOT
BRANCH   6   7
ATOM      7  C13 UNL     1       0.353   0.412  18.403  0.00  0.00    +0.000 C 
ATOM      8  C14 UNL     1      -0.825   0.365  17.662  0.00  0.00    +0.000 C 
ATOM      9  N1  UNL     1      -1.103   1.126  16.575  0.00  0.00    +0.000 NA
ATOM     10  C15 UNL     1      -0.172   2.014  16.192  0.00  0.00    +0.000 C 
ATOM     11  C16 UNL     1       1.036   2.161  16.835  0.00  0.00    +0.000 C 
ATOM     12  C17 UNL     1       1.308   1.347  17.942  0.00  0.00    +0.000 C 
BRANCH  12  13
ATOM     13  C18 UNL     1       2.645   1.495  18.570  0.00  0.00    +0.000 C 
ATOM     14  N2  UNL     1       2.846   2.259  19.600  0.00  0.00    +0.000 NA
BRANCH  14  15
ATOM     15  O2  UNL     1       4.199   2.196  19.954  0.00  0.00    +0.000 OA
ATOM     16  H   UNL     1       4.445   1.948  20.823  0.00  0.00    +0.000 HD
ENDBRANCH  14  15
ENDBRANCH  12  13
ENDBRANCH   6   7
BRANCH   1  17
ATOM     17  C6  UNL     1       0.994  -2.866  18.507  0.00  0.00    +0.000 C 
ATOM     18  O1  UNL     1      -0.074  -3.466  18.620  0.00  0.00    +0.000 OA
BRANCH  17  19
ATOM     19  C4  UNL     1       1.970  -3.159  17.358  0.00  0.00    +0.000 C 
ATOM     20  C5  UNL     1       3.163  -3.944  17.898  0.00  0.00    +0.000 C 
BRANCH  19  22
ATOM     21  C1  UNL     1       1.382  -1.651  15.404  0.00  0.00    +0.000 C 
ATOM     22  C2  UNL     1       2.340  -1.869  16.580  0.00  0.00    +0.000 C 
ATOM     23  C3  UNL     1       3.784  -1.837  16.066  0.00  0.00    +0.000 C 
ENDBRANCH  19  22
ENDBRANCH  17  19
ENDBRANCH   1  17
TORSDOF 6
ENDMDL
