MODEL 1
REMARK VINA RESULT:    -9.215      0.000      0.000
REMARK INTER + INTRA:         -13.091
REMARK INTER:                 -11.909
REMARK INTRA:                  -1.183
REMARK UNBOUND:                -1.183
REMARK  Name = ligantes_geracao2\Derivado_018.pdb
REMARK  7 active torsions:
REMARK  status: ('A' for Active; 'I' for Inactive)
REMARK    1  A    between atoms: C_1  and  C_2
REMARK    2  A    between atoms: C_2  and  C_3
REMARK    3  A    between atoms: C_3  and  C_4
REMARK    4  A    between atoms: C_4  and  C_6
REMARK    5  A    between atoms: C_7  and  C_8
REMARK    6  A    between atoms: C_11  and  C_12
REMARK    7  A    between atoms: C_17  and  C_18
REMARK                            x       y       z     vdW  Elec       q    Type
REMARK                         _______ _______ _______ _____ _____    ______ ____
ROOT
ATOM      1  C   UNL     1       1.992  68.062  64.889  0.00  0.00    +0.000 C 
ATOM      2  C   UNL     1       0.693  68.179  65.386  0.00  0.00    +0.000 C 
ATOM      3  N   UNL     1      -0.417  68.335  64.630  0.00  0.00    +0.000 NA
ATOM      4  C   UNL     1      -0.247  68.380  63.298  0.00  0.00    +0.000 C 
ATOM      5  C   UNL     1       0.990  68.295  62.689  0.00  0.00    +0.000 C 
ATOM      6  C   UNL     1       2.132  68.140  63.489  0.00  0.00    +0.000 C 
ENDROOT
BRANCH   1  12
ATOM      7  C   UNL     1       3.175  66.575  66.635  0.00  0.00    +0.000 C 
ATOM      8  C   UNL     1       3.417  66.983  68.103  0.00  0.00    +0.000 C 
ATOM      9  C   UNL     1       2.829  65.994  69.101  0.00  0.00    +0.000 C 
ATOM     10  C   UNL     1       2.779  68.363  68.208  0.00  0.00    +0.000 C 
ATOM     11  C   UNL     1       3.187  69.029  66.903  0.00  0.00    +0.000 C 
ATOM     12  C   UNL     1       3.172  67.910  65.842  0.00  0.00    +0.000 C 
BRANCH   7  13
ATOM     13  C   UNL     1       4.247  65.618  66.110  0.00  0.00    +0.000 C 
ATOM     14  O   UNL     1       5.420  65.967  65.964  0.00  0.00    +0.000 OA
BRANCH  13  15
ATOM     15  C   UNL     1       3.808  64.202  65.783  0.00  0.00    +0.000 C 
BRANCH  15  17
ATOM     16  C   UNL     1       4.530  63.664  63.412  0.00  0.00    +0.000 C 
ATOM     17  C   UNL     1       3.375  64.053  64.327  0.00  0.00    +0.000 C 
ENDBRANCH  15  17
ENDBRANCH  13  15
ENDBRANCH   7  13
ENDBRANCH   1  12
BRANCH   6  18
ATOM     18  C   UNL     1       3.424  68.060  62.825  0.00  0.00    +0.000 C 
ATOM     19  N   UNL     1       4.390  68.956  62.811  0.00  0.00    +0.000 NA
ATOM     20  N   UNL     1       5.405  68.421  62.055  0.00  0.00    +0.000 NA
ATOM     21  N   UNL     1       5.080  67.217  61.607  0.00  0.00    +0.000 NA
ATOM     22  N   UNL     1       3.849  66.990  62.084  0.00  0.00    +0.000 N 
ATOM     23  H   UNL     1       3.325  66.172  61.926  0.00  0.00    +0.000 HD
ENDBRANCH   6  18
TORSDOF 5
ENDMDL
MODEL 2
REMARK VINA RESULT:    -8.971      1.783      4.513
REMARK INTER + INTRA:         -12.775
REMARK INTER:                 -11.792
REMARK INTRA:                  -0.983
REMARK UNBOUND:                -1.183
REMARK  Name = ligantes_geracao2\Derivado_018.pdb
REMARK  7 active torsions:
REMARK  status: ('A' for Active; 'I' for Inactive)
REMARK    1  A    between atoms: C_1  and  C_2
REMARK    2  A    between atoms: C_2  and  C_3
REMARK    3  A    between atoms: C_3  and  C_4
REMARK    4  A    between atoms: C_4  and  C_6
REMARK    5  A    between atoms: C_7  and  C_8
REMARK    6  A    between atoms: C_11  and  C_12
REMARK    7  A    between atoms: C_17  and  C_18
REMARK                            x       y       z     vdW  Elec       q    Type
REMARK                         _______ _______ _______ _____ _____    ______ ____
ROOT
ATOM      1  C   UNL     1       1.937  67.714  63.385  0.00  0.00    +0.000 C 
ATOM      2  C   UNL     1       2.795  67.793  62.285  0.00  0.00    +0.000 C 
ATOM      3  N   UNL     1       2.546  68.493  61.156  0.00  0.00    +0.000 NA
ATOM      4  C   UNL     1       1.382  69.160  61.096  0.00  0.00    +0.000 C 
ATOM      5  C   UNL     1       0.445  69.144  62.110  0.00  0.00    +0.000 C 
ATOM      6  C   UNL     1       0.716  68.406  63.272  0.00  0.00    +0.000 C 
ENDROOT
BRANCH   1  12
ATOM      7  C   UNL     1       3.550  67.408  65.376  0.00  0.00    +0.000 C 
ATOM      8  C   UNL     1       4.458  66.177  65.577  0.00  0.00    +0.000 C 
ATOM      9  C   UNL     1       5.932  66.539  65.705  0.00  0.00    +0.000 C 
ATOM     10  C   UNL     1       4.175  65.311  64.356  0.00  0.00    +0.000 C 
ATOM     11  C   UNL     1       2.667  65.427  64.196  0.00  0.00    +0.000 C 
ATOM     12  C   UNL     1       2.316  66.874  64.599  0.00  0.00    +0.000 C 
BRANCH   7  13
ATOM     13  C   UNL     1       3.137  68.052  66.701  0.00  0.00    +0.000 C 
ATOM     14  O   UNL     1       3.197  69.269  66.883  0.00  0.00    +0.000 OA
BRANCH  13  15
ATOM     15  C   UNL     1       2.628  67.124  67.790  0.00  0.00    +0.000 C 
BRANCH  15  17
ATOM     16  C   UNL     1       4.201  65.628  69.102  0.00  0.00    +0.000 C 
ATOM     17  C   UNL     1       3.603  67.022  68.961  0.00  0.00    +0.000 C 
ENDBRANCH  15  17
ENDBRANCH  13  15
ENDBRANCH   7  13
ENDBRANCH   1  12
BRANCH   6  18
ATOM     18  C   UNL     1      -0.290  68.397  64.324  0.00  0.00    +0.000 C 
ATOM     19  N   UNL     1      -0.110  68.519  65.624  0.00  0.00    +0.000 NA
ATOM     20  N   UNL     1      -1.357  68.452  66.197  0.00  0.00    +0.000 NA
ATOM     21  N   UNL     1      -2.294  68.290  65.274  0.00  0.00    +0.000 NA
ATOM     22  N   UNL     1      -1.634  68.255  64.110  0.00  0.00    +0.000 N 
ATOM     23  H   UNL     1      -2.054  68.144  63.226  0.00  0.00    +0.000 HD
ENDBRANCH   6  18
TORSDOF 5
ENDMDL
MODEL 3
REMARK VINA RESULT:    -7.471      6.818      9.356
REMARK INTER + INTRA:         -10.837
REMARK INTER:                  -9.177
REMARK INTRA:                  -1.660
REMARK UNBOUND:                -1.183
REMARK  Name = ligantes_geracao2\Derivado_018.pdb
REMARK  7 active torsions:
REMARK  status: ('A' for Active; 'I' for Inactive)
REMARK    1  A    between atoms: C_1  and  C_2
REMARK    2  A    between atoms: C_2  and  C_3
REMARK    3  A    between atoms: C_3  and  C_4
REMARK    4  A    between atoms: C_4  and  C_6
REMARK    5  A    between atoms: C_7  and  C_8
REMARK    6  A    between atoms: C_11  and  C_12
REMARK    7  A    between atoms: C_17  and  C_18
REMARK                            x       y       z     vdW  Elec       q    Type
REMARK                         _______ _______ _______ _____ _____    ______ ____
ROOT
ATOM      1  C   UNL     1       1.619  63.073  70.158  0.00  0.00    +0.000 C 
ATOM      2  C   UNL     1       2.245  63.952  69.271  0.00  0.00    +0.000 C 
ATOM      3  N   UNL     1       1.894  65.243  69.079  0.00  0.00    +0.000 NA
ATOM      4  C   UNL     1       0.861  65.708  69.802  0.00  0.00    +0.000 C 
ATOM      5  C   UNL     1       0.151  64.932  70.696  0.00  0.00    +0.000 C 
ATOM      6  C   UNL     1       0.525  63.592  70.877  0.00  0.00    +0.000 C 
ENDROOT
BRANCH   1  12
ATOM      7  C   UNL     1       3.272  61.428  71.262  0.00  0.00    +0.000 C 
ATOM      8  C   UNL     1       4.301  60.579  70.487  0.00  0.00    +0.000 C 
ATOM      9  C   UNL     1       5.732  60.802  70.959  0.00  0.00    +0.000 C 
ATOM     10  C   UNL     1       4.096  60.992  69.035  0.00  0.00    +0.000 C 
ATOM     11  C   UNL     1       2.582  61.085  68.917  0.00  0.00    +0.000 C 
ATOM     12  C   UNL     1       2.091  61.629  70.274  0.00  0.00    +0.000 C 
BRANCH   7  13
ATOM     13  C   UNL     1       2.807  60.751  72.553  0.00  0.00    +0.000 C 
ATOM     14  O   UNL     1       2.302  61.385  73.479  0.00  0.00    +0.000 OA
BRANCH  13  15
ATOM     15  C   UNL     1       2.983  59.244  72.643  0.00  0.00    +0.000 C 
BRANCH  15  17
ATOM     16  C   UNL     1       1.983  57.734  70.868  0.00  0.00    +0.000 C 
ATOM     17  C   UNL     1       1.743  58.490  72.168  0.00  0.00    +0.000 C 
ENDBRANCH  15  17
ENDBRANCH  13  15
ENDBRANCH   7  13
ENDBRANCH   1  12
BRANCH   6  18
ATOM     18  C   UNL     1      -0.243  62.791  71.819  0.00  0.00    +0.000 C 
ATOM     19  N   UNL     1      -1.005  61.746  71.568  0.00  0.00    +0.000 NA
ATOM     20  N   UNL     1      -1.512  61.335  72.777  0.00  0.00    +0.000 NA
ATOM     21  N   UNL     1      -1.077  62.109  73.762  0.00  0.00    +0.000 NA
ATOM     22  N   UNL     1      -0.288  63.014  73.169  0.00  0.00    +0.000 N 
ATOM     23  H   UNL     1       0.191  63.737  73.636  0.00  0.00    +0.000 HD
ENDBRANCH   6  18
TORSDOF 5
ENDMDL
MODEL 4
REMARK VINA RESULT:    -7.430      6.244      8.261
REMARK INTER + INTRA:         -10.785
REMARK INTER:                  -9.510
REMARK INTRA:                  -1.274
REMARK UNBOUND:                -1.183
REMARK  Name = ligantes_geracao2\Derivado_018.pdb
REMARK  7 active torsions:
REMARK  status: ('A' for Active; 'I' for Inactive)
REMARK    1  A    between atoms: C_1  and  C_2
REMARK    2  A    between atoms: C_2  and  C_3
REMARK    3  A    between atoms: C_3  and  C_4
REMARK    4  A    between atoms: C_4  and  C_6
REMARK    5  A    between atoms: C_7  and  C_8
REMARK    6  A    between atoms: C_11  and  C_12
REMARK    7  A    between atoms: C_17  and  C_18
REMARK                            x       y       z     vdW  Elec       q    Type
REMARK                         _______ _______ _______ _____ _____    ______ ____
ROOT
ATOM      1  C   UNL     1       1.262  63.033  71.491  0.00  0.00    +0.000 C 
ATOM      2  C   UNL     1       0.342  63.620  72.364  0.00  0.00    +0.000 C 
ATOM      3  N   UNL     1       0.180  63.283  73.663  0.00  0.00    +0.000 NA
ATOM      4  C   UNL     1       0.968  62.307  74.143  0.00  0.00    +0.000 C 
ATOM      5  C   UNL     1       1.902  61.640  73.375  0.00  0.00    +0.000 C 
ATOM      6  C   UNL     1       2.051  61.997  72.026  0.00  0.00    +0.000 C 
ENDROOT
BRANCH   1  12
ATOM      7  C   UNL     1       2.355  64.630  69.785  0.00  0.00    +0.000 C 
ATOM      8  C   UNL     1       1.581  65.670  68.949  0.00  0.00    +0.000 C 
ATOM      9  C   UNL     1       2.102  67.090  69.135  0.00  0.00    +0.000 C 
ATOM     10  C   UNL     1       0.140  65.514  69.416  0.00  0.00    +0.000 C 
ATOM     11  C   UNL     1      -0.020  64.007  69.535  0.00  0.00    +0.000 C 
ATOM     12  C   UNL     1       1.340  63.482  70.037  0.00  0.00    +0.000 C 
BRANCH   7  13
ATOM     13  C   UNL     1       3.607  64.118  69.069  0.00  0.00    +0.000 C 
ATOM     14  O   UNL     1       3.566  63.181  68.271  0.00  0.00    +0.000 OA
BRANCH  13  15
ATOM     15  C   UNL     1       4.915  64.828  69.374  0.00  0.00    +0.000 C 
BRANCH  15  17
ATOM     16  C   UNL     1       4.871  66.302  67.311  0.00  0.00    +0.000 C 
ATOM     17  C   UNL     1       5.646  65.259  68.105  0.00  0.00    +0.000 C 
ENDBRANCH  15  17
ENDBRANCH  13  15
ENDBRANCH   7  13
ENDBRANCH   1  12
BRANCH   6  18
ATOM     18  C   UNL     1       3.036  61.274  71.235  0.00  0.00    +0.000 C 
ATOM     19  N   UNL     1       2.825  60.349  70.320  0.00  0.00    +0.000 NA
ATOM     20  N   UNL     1       4.063  59.973  69.855  0.00  0.00    +0.000 NA
ATOM     21  N   UNL     1       5.024  60.648  70.468  0.00  0.00    +0.000 NA
ATOM     22  N   UNL     1       4.389  61.457  71.326  0.00  0.00    +0.000 N 
ATOM     23  H   UNL     1       4.831  62.092  71.935  0.00  0.00    +0.000 HD
ENDBRANCH   6  18
TORSDOF 5
ENDMDL
MODEL 5
REMARK VINA RESULT:    -7.387      1.634      3.778
REMARK INTER + INTRA:         -10.729
REMARK INTER:                 -11.970
REMARK INTRA:                   1.241
REMARK UNBOUND:                -1.183
REMARK  Name = ligantes_geracao2\Derivado_018.pdb
REMARK  7 active torsions:
REMARK  status: ('A' for Active; 'I' for Inactive)
REMARK    1  A    between atoms: C_1  and  C_2
REMARK    2  A    between atoms: C_2  and  C_3
REMARK    3  A    between atoms: C_3  and  C_4
REMARK    4  A    between atoms: C_4  and  C_6
REMARK    5  A    between atoms: C_7  and  C_8
REMARK    6  A    between atoms: C_11  and  C_12
REMARK    7  A    between atoms: C_17  and  C_18
REMARK                            x       y       z     vdW  Elec       q    Type
REMARK                         _______ _______ _______ _____ _____    ______ ____
ROOT
ATOM      1  C   UNL     1       2.724  68.205  64.350  0.00  0.00    +0.000 C 
ATOM      2  C   UNL     1       3.481  68.402  63.193  0.00  0.00    +0.000 C 
ATOM      3  N   UNL     1       2.974  68.573  61.952  0.00  0.00    +0.000 NA
ATOM      4  C   UNL     1       1.636  68.551  61.831  0.00  0.00    +0.000 C 
ATOM      5  C   UNL     1       0.783  68.346  62.897  0.00  0.00    +0.000 C 
ATOM      6  C   UNL     1       1.326  68.162  64.177  0.00  0.00    +0.000 C 
ENDROOT
BRANCH   1  12
ATOM      7  C   UNL     1       2.859  66.799  66.509  0.00  0.00    +0.000 C 
ATOM      8  C   UNL     1       2.609  67.356  67.925  0.00  0.00    +0.000 C 
ATOM      9  C   UNL     1       1.513  66.610  68.675  0.00  0.00    +0.000 C 
ATOM     10  C   UNL     1       2.257  68.819  67.685  0.00  0.00    +0.000 C 
ATOM     11  C   UNL     1       3.244  69.235  66.605  0.00  0.00    +0.000 C 
ATOM     12  C   UNL     1       3.410  68.001  65.695  0.00  0.00    +0.000 C 
BRANCH   7  13
ATOM     13  C   UNL     1       3.843  65.628  66.506  0.00  0.00    +0.000 C 
ATOM     14  O   UNL     1       3.555  64.532  66.023  0.00  0.00    +0.000 OA
BRANCH  13  15
ATOM     15  C   UNL     1       5.212  65.876  67.117  0.00  0.00    +0.000 C 
BRANCH  15  17
ATOM     16  C   UNL     1       4.715  64.367  69.093  0.00  0.00    +0.000 C 
ATOM     17  C   UNL     1       5.199  65.738  68.637  0.00  0.00    +0.000 C 
ENDBRANCH  15  17
ENDBRANCH  13  15
ENDBRANCH   7  13
ENDBRANCH   1  12
BRANCH   6  18
ATOM     18  C   UNL     1       0.407  67.940  65.284  0.00  0.00    +0.000 C 
ATOM     19  N   UNL     1      -0.103  68.830  66.110  0.00  0.00    +0.000 NA
ATOM     20  N   UNL     1      -0.913  68.137  66.976  0.00  0.00    +0.000 NA
ATOM     21  N   UNL     1      -0.907  66.841  66.697  0.00  0.00    +0.000 NA
ATOM     22  N   UNL     1      -0.087  66.716  65.646  0.00  0.00    +0.000 N 
ATOM     23  H   UNL     1       0.128  65.867  65.197  0.00  0.00    +0.000 HD
ENDBRANCH   6  18
TORSDOF 5
ENDMDL
MODEL 6
REMARK VINA RESULT:    -7.188      7.783      9.912
REMARK INTER + INTRA:         -10.471
REMARK INTER:                  -8.765
REMARK INTRA:                  -1.706
REMARK UNBOUND:                -1.183
REMARK  Name = ligantes_geracao2\Derivado_018.pdb
REMARK  7 active torsions:
REMARK  status: ('A' for Active; 'I' for Inactive)
REMARK    1  A    between atoms: C_1  and  C_2
REMARK    2  A    between atoms: C_2  and  C_3
REMARK    3  A    between atoms: C_3  and  C_4
REMARK    4  A    between atoms: C_4  and  C_6
REMARK    5  A    between atoms: C_7  and  C_8
REMARK    6  A    between atoms: C_11  and  C_12
REMARK    7  A    between atoms: C_17  and  C_18
REMARK                            x       y       z     vdW  Elec       q    Type
REMARK                         _______ _______ _______ _____ _____    ______ ____
ROOT
ATOM      1  C   UNL     1       0.939  62.476  72.724  0.00  0.00    +0.000 C 
ATOM      2  C   UNL     1       0.187  63.549  73.210  0.00  0.00    +0.000 C 
ATOM      3  N   UNL     1      -0.150  63.738  74.505  0.00  0.00    +0.000 NA
ATOM      4  C   UNL     1       0.275  62.817  75.386  0.00  0.00    +0.000 C 
ATOM      5  C   UNL     1       1.008  61.704  75.026  0.00  0.00    +0.000 C 
ATOM      6  C   UNL     1       1.343  61.519  73.676  0.00  0.00    +0.000 C 
ENDROOT
BRANCH   1  12
ATOM      7  C   UNL     1       2.478  63.174  70.774  0.00  0.00    +0.000 C 
ATOM      8  C   UNL     1       2.002  63.947  69.527  0.00  0.00    +0.000 C 
ATOM      9  C   UNL     1       2.769  65.244  69.303  0.00  0.00    +0.000 C 
ATOM     10  C   UNL     1       0.520  64.184  69.787  0.00  0.00    +0.000 C 
ATOM     11  C   UNL     1       0.060  62.861  70.379  0.00  0.00    +0.000 C 
ATOM     12  C   UNL     1       1.240  62.357  71.235  0.00  0.00    +0.000 C 
BRANCH   7  13
ATOM     13  C   UNL     1       3.668  62.259  70.477  0.00  0.00    +0.000 C 
ATOM     14  O   UNL     1       4.453  61.903  71.356  0.00  0.00    +0.000 OA
BRANCH  13  15
ATOM     15  C   UNL     1       3.837  61.791  69.042  0.00  0.00    +0.000 C 
BRANCH  15  17
ATOM     16  C   UNL     1       2.653  59.565  69.312  0.00  0.00    +0.000 C 
ATOM     17  C   UNL     1       3.950  60.272  68.940  0.00  0.00    +0.000 C 
ENDBRANCH  15  17
ENDBRANCH  13  15
ENDBRANCH   7  13
ENDBRANCH   1  12
BRANCH   6  18
ATOM     18  C   UNL     1       2.109  60.335  73.319  0.00  0.00    +0.000 C 
ATOM     19  N   UNL     1       1.667  59.199  72.819  0.00  0.00    +0.000 NA
ATOM     20  N   UNL     1       2.768  58.394  72.651  0.00  0.00    +0.000 NA
ATOM     21  N   UNL     1       3.873  59.014  73.038  0.00  0.00    +0.000 NA
ATOM     22  N   UNL     1       3.466  60.221  73.454  0.00  0.00    +0.000 N 
ATOM     23  H   UNL     1       4.058  60.925  73.806  0.00  0.00    +0.000 HD
ENDBRANCH   6  18
TORSDOF 5
ENDMDL
MODEL 7
REMARK VINA RESULT:    -7.004      1.605      3.458
REMARK INTER + INTRA:         -10.234
REMARK INTER:                 -11.073
REMARK INTRA:                   0.838
REMARK UNBOUND:                -1.183
REMARK  Name = ligantes_geracao2\Derivado_018.pdb
REMARK  7 active torsions:
REMARK  status: ('A' for Active; 'I' for Inactive)
REMARK    1  A    between atoms: C_1  and  C_2
REMARK    2  A    between atoms: C_2  and  C_3
REMARK    3  A    between atoms: C_3  and  C_4
REMARK    4  A    between atoms: C_4  and  C_6
REMARK    5  A    between atoms: C_7  and  C_8
REMARK    6  A    between atoms: C_11  and  C_12
REMARK    7  A    between atoms: C_17  and  C_18
REMARK                            x       y       z     vdW  Elec       q    Type
REMARK                         _______ _______ _______ _____ _____    ______ ____
ROOT
ATOM      1  C   UNL     1       2.464  68.051  63.647  0.00  0.00    +0.000 C 
ATOM      2  C   UNL     1       2.923  68.258  62.344  0.00  0.00    +0.000 C 
ATOM      3  N   UNL     1       2.144  68.585  61.289  0.00  0.00    +0.000 NA
ATOM      4  C   UNL     1       0.827  68.718  61.521  0.00  0.00    +0.000 C 
ATOM      5  C   UNL     1       0.252  68.520  62.761  0.00  0.00    +0.000 C 
ATOM      6  C   UNL     1       1.075  68.174  63.844  0.00  0.00    +0.000 C 
ENDROOT
BRANCH   1  12
ATOM      7  C   UNL     1       2.829  66.720  65.828  0.00  0.00    +0.000 C 
ATOM      8  C   UNL     1       3.209  67.357  67.180  0.00  0.00    +0.000 C 
ATOM      9  C   UNL     1       2.226  67.019  68.294  0.00  0.00    +0.000 C 
ATOM     10  C   UNL     1       3.257  68.850  66.881  0.00  0.00    +0.000 C 
ATOM     11  C   UNL     1       3.939  68.905  65.522  0.00  0.00    +0.000 C 
ATOM     12  C   UNL     1       3.437  67.665  64.755  0.00  0.00    +0.000 C 
BRANCH   7  13
ATOM     13  C   UNL     1       3.365  65.295  65.681  0.00  0.00    +0.000 C 
ATOM     14  O   UNL     1       3.968  64.726  66.592  0.00  0.00    +0.000 OA
BRANCH  13  15
ATOM     15  C   UNL     1       3.111  64.595  64.357  0.00  0.00    +0.000 C 
BRANCH  15  17
ATOM     16  C   UNL     1       4.578  64.971  62.323  0.00  0.00    +0.000 C 
ATOM     17  C   UNL     1       4.407  64.226  63.641  0.00  0.00    +0.000 C 
ENDBRANCH  15  17
ENDBRANCH  13  15
ENDBRANCH   7  13
ENDBRANCH   1  12
BRANCH   6  18
ATOM     18  C   UNL     1       0.445  67.963  65.139  0.00  0.00    +0.000 C 
ATOM     19  N   UNL     1      -0.010  66.838  65.650  0.00  0.00    +0.000 NA
ATOM     20  N   UNL     1      -0.508  67.148  66.892  0.00  0.00    +0.000 NA
ATOM     21  N   UNL     1      -0.368  68.441  67.150  0.00  0.00    +0.000 NA
ATOM     22  N   UNL     1       0.225  68.949  66.062  0.00  0.00    +0.000 N 
ATOM     23  H   UNL     1       0.467  69.896  65.943  0.00  0.00    +0.000 HD
ENDBRANCH   6  18
TORSDOF 5
ENDMDL
MODEL 8
REMARK VINA RESULT:    -6.846      7.663     10.452
REMARK INTER + INTRA:         -10.029
REMARK INTER:                  -8.907
REMARK INTRA:                  -1.122
REMARK UNBOUND:                -1.183
REMARK  Name = ligantes_geracao2\Derivado_018.pdb
REMARK  7 active torsions:
REMARK  status: ('A' for Active; 'I' for Inactive)
REMARK    1  A    between atoms: C_1  and  C_2
REMARK    2  A    between atoms: C_2  and  C_3
REMARK    3  A    between atoms: C_3  and  C_4
REMARK    4  A    between atoms: C_4  and  C_6
REMARK    5  A    between atoms: C_7  and  C_8
REMARK    6  A    between atoms: C_11  and  C_12
REMARK    7  A    between atoms: C_17  and  C_18
REMARK                            x       y       z     vdW  Elec       q    Type
REMARK                         _______ _______ _______ _____ _____    ______ ____
ROOT
ATOM      1  C   UNL     1       1.699  60.187  72.354  0.00  0.00    +0.000 C 
ATOM      2  C   UNL     1       1.761  58.867  71.901  0.00  0.00    +0.000 C 
ATOM      3  N   UNL     1       0.836  57.915  72.156  0.00  0.00    +0.000 NA
ATOM      4  C   UNL     1      -0.220  58.274  72.903  0.00  0.00    +0.000 C 
ATOM      5  C   UNL     1      -0.384  59.543  73.424  0.00  0.00    +0.000 C 
ATOM      6  C   UNL     1       0.589  60.517  73.156  0.00  0.00    +0.000 C 
ENDROOT
BRANCH   1  12
ATOM      7  C   UNL     1       2.936  61.496  70.506  0.00  0.00    +0.000 C 
ATOM      8  C   UNL     1       4.436  61.334  70.183  0.00  0.00    +0.000 C 
ATOM      9  C   UNL     1       4.694  60.962  68.728  0.00  0.00    +0.000 C 
ATOM     10  C   UNL     1       4.904  60.255  71.151  0.00  0.00    +0.000 C 
ATOM     11  C   UNL     1       4.193  60.624  72.444  0.00  0.00    +0.000 C 
ATOM     12  C   UNL     1       2.814  61.170  72.020  0.00  0.00    +0.000 C 
BRANCH   7  13
ATOM     13  C   UNL     1       2.419  62.903  70.197  0.00  0.00    +0.000 C 
ATOM     14  O   UNL     1       1.556  63.448  70.886  0.00  0.00    +0.000 OA
BRANCH  13  15
ATOM     15  C   UNL     1       3.030  63.615  69.002  0.00  0.00    +0.000 C 
BRANCH  15  17
ATOM     16  C   UNL     1       5.179  64.961  69.043  0.00  0.00    +0.000 C 
ATOM     17  C   UNL     1       3.696  64.931  69.394  0.00  0.00    +0.000 C 
ENDBRANCH  15  17
ENDBRANCH  13  15
ENDBRANCH   7  13
ENDBRANCH   1  12
BRANCH   6  18
ATOM     18  C   UNL     1       0.399  61.845  73.721  0.00  0.00    +0.000 C 
ATOM     19  N   UNL     1       0.893  62.332  74.841  0.00  0.00    +0.000 NA
ATOM     20  N   UNL     1       0.433  63.623  74.940  0.00  0.00    +0.000 NA
ATOM     21  N   UNL     1      -0.333  63.934  73.904  0.00  0.00    +0.000 NA
ATOM     22  N   UNL     1      -0.356  62.831  73.145  0.00  0.00    +0.000 N 
ATOM     23  H   UNL     1      -0.845  62.742  72.296  0.00  0.00    +0.000 HD
ENDBRANCH   6  18
TORSDOF 5
ENDMDL
MODEL 9
REMARK VINA RESULT:    -6.676     19.991     22.173
REMARK INTER + INTRA:          -9.810
REMARK INTER:                  -8.543
REMARK INTRA:                  -1.267
REMARK UNBOUND:                -1.183
REMARK  Name = ligantes_geracao2\Derivado_018.pdb
REMARK  7 active torsions:
REMARK  status: ('A' for Active; 'I' for Inactive)
REMARK    1  A    between atoms: C_1  and  C_2
REMARK    2  A    between atoms: C_2  and  C_3
REMARK    3  A    between atoms: C_3  and  C_4
REMARK    4  A    between atoms: C_4  and  C_6
REMARK    5  A    between atoms: C_7  and  C_8
REMARK    6  A    between atoms: C_11  and  C_12
REMARK    7  A    between atoms: C_17  and  C_18
REMARK                            x       y       z     vdW  Elec       q    Type
REMARK                         _______ _______ _______ _____ _____    ______ ____
ROOT
ATOM      1  C   UNL     1      14.624  50.847  60.087  0.00  0.00    +0.000 C 
ATOM      2  C   UNL     1      14.600  52.085  59.440  0.00  0.00    +0.000 C 
ATOM      3  N   UNL     1      15.342  53.159  59.791  0.00  0.00    +0.000 NA
ATOM      4  C   UNL     1      16.162  53.015  60.845  0.00  0.00    +0.000 C 
ATOM      5  C   UNL     1      16.260  51.848  61.576  0.00  0.00    +0.000 C 
ATOM      6  C   UNL     1      15.477  50.746  61.203  0.00  0.00    +0.000 C 
ENDROOT
BRANCH   1  12
ATOM      7  C   UNL     1      13.976  49.279  58.142  0.00  0.00    +0.000 C 
ATOM      8  C   UNL     1      12.576  49.230  57.496  0.00  0.00    +0.000 C 
ATOM      9  C   UNL     1      12.606  49.474  55.992  0.00  0.00    +0.000 C 
ATOM     10  C   UNL     1      11.791  50.299  58.244  0.00  0.00    +0.000 C 
ATOM     11  C   UNL     1      12.235  50.105  59.685  0.00  0.00    +0.000 C 
ATOM     12  C   UNL     1      13.724  49.712  59.612  0.00  0.00    +0.000 C 
BRANCH   7  13
ATOM     13  C   UNL     1      14.699  47.933  58.076  0.00  0.00    +0.000 C 
ATOM     14  O   UNL     1      14.121  46.868  58.297  0.00  0.00    +0.000 OA
BRANCH  13  15
ATOM     15  C   UNL     1      16.173  47.959  57.708  0.00  0.00    +0.000 C 
BRANCH  15  17
ATOM     16  C   UNL     1      17.085  49.794  56.214  0.00  0.00    +0.000 C 
ATOM     17  C   UNL     1      16.724  49.381  57.635  0.00  0.00    +0.000 C 
ENDBRANCH  15  17
ENDBRANCH  13  15
ENDBRANCH   7  13
ENDBRANCH   1  12
BRANCH   6  18
ATOM     18  C   UNL     1      15.591  49.529  61.993  0.00  0.00    +0.000 C 
ATOM     19  N   UNL     1      15.968  48.331  61.594  0.00  0.00    +0.000 NA
ATOM     20  N   UNL     1      15.917  47.519  62.701  0.00  0.00    +0.000 NA
ATOM     21  N   UNL     1      15.515  48.196  63.768  0.00  0.00    +0.000 NA
ATOM     22  N   UNL     1      15.312  49.445  63.330  0.00  0.00    +0.000 N 
ATOM     23  H   UNL     1      15.006  50.195  63.889  0.00  0.00    +0.000 HD
ENDBRANCH   6  18
TORSDOF 5
ENDMDL
