MODEL 1
REMARK VINA RESULT:    -7.975      0.000      0.000
REMARK INTER + INTRA:         -10.882
REMARK INTER:                  -9.840
REMARK INTRA:                  -1.042
REMARK UNBOUND:                -1.042
REMARK  Name = ligantes_geracao2\Derivado_016.pdb
REMARK  6 active torsions:
REMARK  status: ('A' for Active; 'I' for Inactive)
REMARK    1  A    between atoms: C1_1  and  C2_2
REMARK    2  A    between atoms: C2_2  and  C3_3
REMARK    3  A    between atoms: C3_3  and  C4_5
REMARK    4  A    between atoms: C5_6  and  C6_7
REMARK    5  A    between atoms: C9_10  and  C10_11
REMARK    6  A    between atoms: C14_16  and  C15_17
REMARK                            x       y       z     vdW  Elec       q    Type
REMARK                         _______ _______ _______ _____ _____    ______ ____
ROOT
ATOM      1  C4  UNL     1       3.063  66.441  67.059  0.00  0.00    +0.000 C 
ATOM      2  C5  UNL     1       3.422  66.319  68.546  0.00  0.00    +0.000 C 
ATOM      3  C6  UNL     1       2.290  65.755  69.394  0.00  0.00    +0.000 C 
ATOM      4  C7  UNL     1       4.644  65.403  68.526  0.00  0.00    +0.000 C 
ATOM      5  C8  UNL     1       5.442  65.850  67.304  0.00  0.00    +0.000 C 
ATOM      6  C9  UNL     1       4.435  66.535  66.357  0.00  0.00    +0.000 C 
ENDROOT
BRANCH   6   7
ATOM      7  C10 UNL     1       4.468  66.032  64.927  0.00  0.00    +0.000 C 
ATOM      8  C11 UNL     1       4.197  64.680  64.698  0.00  0.00    +0.000 C 
ATOM      9  N1  UNL     1       4.176  64.088  63.483  0.00  0.00    +0.000 NA
ATOM     10  C12 UNL     1       4.458  64.862  62.420  0.00  0.00    +0.000 C 
ATOM     11  C13 UNL     1       4.749  66.208  62.519  0.00  0.00    +0.000 C 
ATOM     12  C14 UNL     1       4.752  66.802  63.787  0.00  0.00    +0.000 C 
BRANCH  12  13
ATOM     13  C15 UNL     1       5.047  68.205  63.850  0.00  0.00    +0.000 C 
ATOM     14  N2  UNL     1       5.295  69.338  63.893  0.00  0.00    +0.000 NA
ENDBRANCH  12  13
ENDBRANCH   6   7
BRANCH   1  15
ATOM     15  C3  UNL     1       2.179  67.629  66.688  0.00  0.00    +0.000 C 
ATOM     16  O1  UNL     1       1.018  67.427  66.323  0.00  0.00    +0.000 OA
BRANCH  15  18
ATOM     17  C1  UNL     1       2.470  69.757  68.017  0.00  0.00    +0.000 C 
ATOM     18  C2  UNL     1       2.771  69.028  66.719  0.00  0.00    +0.000 C 
ENDBRANCH  15  18
ENDBRANCH   1  15
TORSDOF 4
ENDMDL
MODEL 2
REMARK VINA RESULT:    -7.665      2.478      4.346
REMARK INTER + INTRA:         -10.500
REMARK INTER:                  -9.460
REMARK INTRA:                  -1.040
REMARK UNBOUND:                -1.042
REMARK  Name = ligantes_geracao2\Derivado_016.pdb
REMARK  6 active torsions:
REMARK  status: ('A' for Active; 'I' for Inactive)
REMARK    1  A    between atoms: C1_1  and  C2_2
REMARK    2  A    between atoms: C2_2  and  C3_3
REMARK    3  A    between atoms: C3_3  and  C4_5
REMARK    4  A    between atoms: C5_6  and  C6_7
REMARK    5  A    between atoms: C9_10  and  C10_11
REMARK    6  A    between atoms: C14_16  and  C15_17
REMARK                            x       y       z     vdW  Elec       q    Type
REMARK                         _______ _______ _______ _____ _____    ______ ____
ROOT
ATOM      1  C4  UNL     1       1.287  67.673  65.845  0.00  0.00    +0.000 C 
ATOM      2  C5  UNL     1       0.226  68.782  65.857  0.00  0.00    +0.000 C 
ATOM      3  C6  UNL     1      -1.186  68.266  65.612  0.00  0.00    +0.000 C 
ATOM      4  C7  UNL     1       0.388  69.391  67.249  0.00  0.00    +0.000 C 
ATOM      5  C8  UNL     1       1.895  69.400  67.493  0.00  0.00    +0.000 C 
ATOM      6  C9  UNL     1       2.488  68.306  66.581  0.00  0.00    +0.000 C 
ENDROOT
BRANCH   6   7
ATOM      7  C10 UNL     1       3.408  67.326  67.283  0.00  0.00    +0.000 C 
ATOM      8  C11 UNL     1       3.035  66.862  68.547  0.00  0.00    +0.000 C 
ATOM      9  N1  UNL     1       3.741  65.981  69.290  0.00  0.00    +0.000 NA
ATOM     10  C12 UNL     1       4.900  65.536  68.773  0.00  0.00    +0.000 C 
ATOM     11  C13 UNL     1       5.378  65.926  67.538  0.00  0.00    +0.000 C 
ATOM     12  C14 UNL     1       4.624  66.830  66.782  0.00  0.00    +0.000 C 
BRANCH  12  13
ATOM     13  C15 UNL     1       5.146  67.204  65.499  0.00  0.00    +0.000 C 
ATOM     14  N2  UNL     1       5.570  67.518  64.465  0.00  0.00    +0.000 NA
ENDBRANCH  12  13
ENDBRANCH   6   7
BRANCH   1  15
ATOM     15  C3  UNL     1       1.700  67.168  64.464  0.00  0.00    +0.000 C 
ATOM     16  O1  UNL     1       1.715  65.954  64.244  0.00  0.00    +0.000 OA
BRANCH  15  18
ATOM     17  C1  UNL     1       1.056  68.451  62.385  0.00  0.00    +0.000 C 
ATOM     18  C2  UNL     1       2.140  68.173  63.412  0.00  0.00    +0.000 C 
ENDBRANCH  15  18
ENDBRANCH   1  15
TORSDOF 4
ENDMDL
MODEL 3
REMARK VINA RESULT:    -7.488      1.268      2.653
REMARK INTER + INTRA:         -10.281
REMARK INTER:                  -9.482
REMARK INTRA:                  -0.799
REMARK UNBOUND:                -1.042
REMARK  Name = ligantes_geracao2\Derivado_016.pdb
REMARK  6 active torsions:
REMARK  status: ('A' for Active; 'I' for Inactive)
REMARK    1  A    between atoms: C1_1  and  C2_2
REMARK    2  A    between atoms: C2_2  and  C3_3
REMARK    3  A    between atoms: C3_3  and  C4_5
REMARK    4  A    between atoms: C5_6  and  C6_7
REMARK    5  A    between atoms: C9_10  and  C10_11
REMARK    6  A    between atoms: C14_16  and  C15_17
REMARK                            x       y       z     vdW  Elec       q    Type
REMARK                         _______ _______ _______ _____ _____    ______ ____
ROOT
ATOM      1  C4  UNL     1       3.094  67.098  67.162  0.00  0.00    +0.000 C 
ATOM      2  C5  UNL     1       3.481  66.395  68.470  0.00  0.00    +0.000 C 
ATOM      3  C6  UNL     1       2.327  65.632  69.107  0.00  0.00    +0.000 C 
ATOM      4  C7  UNL     1       4.617  65.471  68.035  0.00  0.00    +0.000 C 
ATOM      5  C8  UNL     1       5.418  66.291  67.027  0.00  0.00    +0.000 C 
ATOM      6  C9  UNL     1       4.450  67.355  66.469  0.00  0.00    +0.000 C 
ENDROOT
BRANCH   6   7
ATOM      7  C10 UNL     1       4.400  67.433  64.955  0.00  0.00    +0.000 C 
ATOM      8  C11 UNL     1       4.677  68.661  64.349  0.00  0.00    +0.000 C 
ATOM      9  N1  UNL     1       4.685  68.884  63.015  0.00  0.00    +0.000 NA
ATOM     10  C12 UNL     1       4.383  67.843  62.219  0.00  0.00    +0.000 C 
ATOM     11  C13 UNL     1       4.084  66.584  62.699  0.00  0.00    +0.000 C 
ATOM     12  C14 UNL     1       4.095  66.373  64.083  0.00  0.00    +0.000 C 
BRANCH  12  13
ATOM     13  C15 UNL     1       3.791  65.050  64.545  0.00  0.00    +0.000 C 
ATOM     14  N2  UNL     1       3.544  63.983  64.929  0.00  0.00    +0.000 NA
ENDBRANCH  12  13
ENDBRANCH   6   7
BRANCH   1  15
ATOM     15  C3  UNL     1       2.308  68.398  67.318  0.00  0.00    +0.000 C 
ATOM     16  O1  UNL     1       2.807  69.335  67.946  0.00  0.00    +0.000 OA
BRANCH  15  18
ATOM     17  C1  UNL     1       0.715  67.594  65.529  0.00  0.00    +0.000 C 
ATOM     18  C2  UNL     1       0.902  68.483  66.746  0.00  0.00    +0.000 C 
ENDBRANCH  15  18
ENDBRANCH   1  15
TORSDOF 4
ENDMDL
MODEL 4
REMARK VINA RESULT:    -7.461      2.860      4.918
REMARK INTER + INTRA:         -10.247
REMARK INTER:                  -9.600
REMARK INTRA:                  -0.647
REMARK UNBOUND:                -1.042
REMARK  Name = ligantes_geracao2\Derivado_016.pdb
REMARK  6 active torsions:
REMARK  status: ('A' for Active; 'I' for Inactive)
REMARK    1  A    between atoms: C1_1  and  C2_2
REMARK    2  A    between atoms: C2_2  and  C3_3
REMARK    3  A    between atoms: C3_3  and  C4_5
REMARK    4  A    between atoms: C5_6  and  C6_7
REMARK    5  A    between atoms: C9_10  and  C10_11
REMARK    6  A    between atoms: C14_16  and  C15_17
REMARK                            x       y       z     vdW  Elec       q    Type
REMARK                         _______ _______ _______ _____ _____    ______ ____
ROOT
ATOM      1  C4  UNL     1       3.407  66.535  66.375  0.00  0.00    +0.000 C 
ATOM      2  C5  UNL     1       4.668  67.338  66.030  0.00  0.00    +0.000 C 
ATOM      3  C6  UNL     1       5.481  66.725  64.898  0.00  0.00    +0.000 C 
ATOM      4  C7  UNL     1       4.107  68.711  65.665  0.00  0.00    +0.000 C 
ATOM      5  C8  UNL     1       2.975  68.943  66.662  0.00  0.00    +0.000 C 
ATOM      6  C9  UNL     1       2.525  67.547  67.138  0.00  0.00    +0.000 C 
ENDROOT
BRANCH   6   7
ATOM      7  C10 UNL     1       1.031  67.299  67.052  0.00  0.00    +0.000 C 
ATOM      8  C11 UNL     1       0.361  66.907  68.214  0.00  0.00    +0.000 C 
ATOM      9  N1  UNL     1      -0.967  66.662  68.299  0.00  0.00    +0.000 NA
ATOM     10  C12 UNL     1      -1.686  66.791  67.170  0.00  0.00    +0.000 C 
ATOM     11  C13 UNL     1      -1.136  67.165  65.960  0.00  0.00    +0.000 C 
ATOM     12  C14 UNL     1       0.238  67.425  65.899  0.00  0.00    +0.000 C 
BRANCH  12  13
ATOM     13  C15 UNL     1       0.772  67.823  64.628  0.00  0.00    +0.000 C 
ATOM     14  N2  UNL     1       1.206  68.132  63.597  0.00  0.00    +0.000 NA
ENDBRANCH  12  13
ENDBRANCH   6   7
BRANCH   1  15
ATOM     15  C3  UNL     1       3.632  65.274  67.205  0.00  0.00    +0.000 C 
ATOM     16  O1  UNL     1       3.571  64.170  66.656  0.00  0.00    +0.000 OA
BRANCH  15  18
ATOM     17  C1  UNL     1       5.320  65.188  69.082  0.00  0.00    +0.000 C 
ATOM     18  C2  UNL     1       3.866  65.406  68.701  0.00  0.00    +0.000 C 
ENDBRANCH  15  18
ENDBRANCH   1  15
TORSDOF 4
ENDMDL
MODEL 5
REMARK VINA RESULT:    -7.154      3.079      4.662
REMARK INTER + INTRA:          -9.868
REMARK INTER:                  -9.040
REMARK INTRA:                  -0.829
REMARK UNBOUND:                -1.042
REMARK  Name = ligantes_geracao2\Derivado_016.pdb
REMARK  6 active torsions:
REMARK  status: ('A' for Active; 'I' for Inactive)
REMARK    1  A    between atoms: C1_1  and  C2_2
REMARK    2  A    between atoms: C2_2  and  C3_3
REMARK    3  A    between atoms: C3_3  and  C4_5
REMARK    4  A    between atoms: C5_6  and  C6_7
REMARK    5  A    between atoms: C9_10  and  C10_11
REMARK    6  A    between atoms: C14_16  and  C15_17
REMARK                            x       y       z     vdW  Elec       q    Type
REMARK                         _______ _______ _______ _____ _____    ______ ____
ROOT
ATOM      1  C4  UNL     1       3.393  67.217  65.816  0.00  0.00    +0.000 C 
ATOM      2  C5  UNL     1       4.425  66.109  65.566  0.00  0.00    +0.000 C 
ATOM      3  C6  UNL     1       5.400  65.925  66.721  0.00  0.00    +0.000 C 
ATOM      4  C7  UNL     1       3.551  64.876  65.341  0.00  0.00    +0.000 C 
ATOM      5  C8  UNL     1       2.366  65.386  64.526  0.00  0.00    +0.000 C 
ATOM      6  C9  UNL     1       2.263  66.899  64.812  0.00  0.00    +0.000 C 
ENDROOT
BRANCH   6   7
ATOM      7  C10 UNL     1       0.881  67.374  65.219  0.00  0.00    +0.000 C 
ATOM      8  C11 UNL     1       0.483  67.181  66.545  0.00  0.00    +0.000 C 
ATOM      9  N1  UNL     1      -0.709  67.560  67.060  0.00  0.00    +0.000 NA
ATOM     10  C12 UNL     1      -1.578  68.150  66.220  0.00  0.00    +0.000 C 
ATOM     11  C13 UNL     1      -1.303  68.387  64.888  0.00  0.00    +0.000 C 
ATOM     12  C14 UNL     1      -0.058  67.998  64.381  0.00  0.00    +0.000 C 
BRANCH  12  13
ATOM     13  C15 UNL     1       0.197  68.271  62.996  0.00  0.00    +0.000 C 
ATOM     14  N2  UNL     1       0.401  68.504  61.877  0.00  0.00    +0.000 NA
ENDBRANCH  12  13
ENDBRANCH   6   7
BRANCH   1  15
ATOM     15  C3  UNL     1       3.899  68.646  65.631  0.00  0.00    +0.000 C 
ATOM     16  O1  UNL     1       3.479  69.537  66.374  0.00  0.00    +0.000 OA
BRANCH  15  18
ATOM     17  C1  UNL     1       4.189  68.899  63.134  0.00  0.00    +0.000 C 
ATOM     18  C2  UNL     1       4.863  68.947  64.495  0.00  0.00    +0.000 C 
ENDBRANCH  15  18
ENDBRANCH   1  15
TORSDOF 4
ENDMDL
MODEL 6
REMARK VINA RESULT:    -6.544      5.632      8.149
REMARK INTER + INTRA:          -9.116
REMARK INTER:                  -8.088
REMARK INTRA:                  -1.028
REMARK UNBOUND:                -1.042
REMARK  Name = ligantes_geracao2\Derivado_016.pdb
REMARK  6 active torsions:
REMARK  status: ('A' for Active; 'I' for Inactive)
REMARK    1  A    between atoms: C1_1  and  C2_2
REMARK    2  A    between atoms: C2_2  and  C3_3
REMARK    3  A    between atoms: C3_3  and  C4_5
REMARK    4  A    between atoms: C5_6  and  C6_7
REMARK    5  A    between atoms: C9_10  and  C10_11
REMARK    6  A    between atoms: C14_16  and  C15_17
REMARK                            x       y       z     vdW  Elec       q    Type
REMARK                         _______ _______ _______ _____ _____    ______ ____
ROOT
ATOM      1  C4  UNL     1       1.744  62.731  70.284  0.00  0.00    +0.000 C 
ATOM      2  C5  UNL     1       1.108  64.026  70.809  0.00  0.00    +0.000 C 
ATOM      3  C6  UNL     1       0.151  64.672  69.815  0.00  0.00    +0.000 C 
ATOM      4  C7  UNL     1       0.400  63.564  72.081  0.00  0.00    +0.000 C 
ATOM      5  C8  UNL     1       1.355  62.554  72.710  0.00  0.00    +0.000 C 
ATOM      6  C9  UNL     1       2.238  62.021  71.563  0.00  0.00    +0.000 C 
ENDROOT
BRANCH   6   7
ATOM      7  C10 UNL     1       2.318  60.509  71.475  0.00  0.00    +0.000 C 
ATOM      8  C11 UNL     1       1.151  59.774  71.701  0.00  0.00    +0.000 C 
ATOM      9  N1  UNL     1       1.060  58.426  71.647  0.00  0.00    +0.000 NA
ATOM     10  C12 UNL     1       2.188  57.748  71.372  0.00  0.00    +0.000 C 
ATOM     11  C13 UNL     1       3.403  58.361  71.137  0.00  0.00    +0.000 C 
ATOM     12  C14 UNL     1       3.470  59.758  71.187  0.00  0.00    +0.000 C 
BRANCH  12  13
ATOM     13  C15 UNL     1       4.746  60.360  70.928  0.00  0.00    +0.000 C 
ATOM     14  N2  UNL     1       5.777  60.853  70.728  0.00  0.00    +0.000 NA
ENDBRANCH  12  13
ENDBRANCH   6   7
BRANCH   1  15
ATOM     15  C3  UNL     1       2.885  62.913  69.286  0.00  0.00    +0.000 C 
ATOM     16  O1  UNL     1       2.849  62.308  68.211  0.00  0.00    +0.000 OA
BRANCH  15  18
ATOM     17  C1  UNL     1       4.080  65.108  68.919  0.00  0.00    +0.000 C 
ATOM     18  C2  UNL     1       4.068  63.787  69.668  0.00  0.00    +0.000 C 
ENDBRANCH  15  18
ENDBRANCH   1  15
TORSDOF 4
ENDMDL
MODEL 7
REMARK VINA RESULT:    -6.225      7.287     10.195
REMARK INTER + INTRA:          -8.723
REMARK INTER:                  -7.974
REMARK INTRA:                  -0.749
REMARK UNBOUND:                -1.042
REMARK  Name = ligantes_geracao2\Derivado_016.pdb
REMARK  6 active torsions:
REMARK  status: ('A' for Active; 'I' for Inactive)
REMARK    1  A    between atoms: C1_1  and  C2_2
REMARK    2  A    between atoms: C2_2  and  C3_3
REMARK    3  A    between atoms: C3_3  and  C4_5
REMARK    4  A    between atoms: C5_6  and  C6_7
REMARK    5  A    between atoms: C9_10  and  C10_11
REMARK    6  A    between atoms: C14_16  and  C15_17
REMARK                            x       y       z     vdW  Elec       q    Type
REMARK                         _______ _______ _______ _____ _____    ______ ____
ROOT
ATOM      1  C4  UNL     1       2.992  60.588  70.963  0.00  0.00    +0.000 C 
ATOM      2  C5  UNL     1       4.453  60.210  71.241  0.00  0.00    +0.000 C 
ATOM      3  C6  UNL     1       5.438  61.318  70.891  0.00  0.00    +0.000 C 
ATOM      4  C7  UNL     1       4.443  59.894  72.736  0.00  0.00    +0.000 C 
ATOM      5  C8  UNL     1       3.124  59.160  72.966  0.00  0.00    +0.000 C 
ATOM      6  C9  UNL     1       2.185  59.588  71.819  0.00  0.00    +0.000 C 
ENDROOT
BRANCH   6   7
ATOM      7  C10 UNL     1       0.819  60.072  72.267  0.00  0.00    +0.000 C 
ATOM      8  C11 UNL     1       0.578  61.449  72.272  0.00  0.00    +0.000 C 
ATOM      9  N1  UNL     1      -0.589  62.030  72.632  0.00  0.00    +0.000 NA
ATOM     10  C12 UNL     1      -1.581  61.215  73.031  0.00  0.00    +0.000 C 
ATOM     11  C13 UNL     1      -1.461  59.840  73.076  0.00  0.00    +0.000 C 
ATOM     12  C14 UNL     1      -0.248  59.260  72.687  0.00  0.00    +0.000 C 
BRANCH  12  13
ATOM     13  C15 UNL     1      -0.163  57.829  72.735  0.00  0.00    +0.000 C 
ATOM     14  N2  UNL     1      -0.106  56.671  72.780  0.00  0.00    +0.000 NA
ENDBRANCH  12  13
ENDBRANCH   6   7
BRANCH   1  15
ATOM     15  C3  UNL     1       2.561  60.525  69.500  0.00  0.00    +0.000 C 
ATOM     16  O1  UNL     1       2.667  59.461  68.884  0.00  0.00    +0.000 OA
BRANCH  15  18
ATOM     17  C1  UNL     1       3.204  62.636  68.271  0.00  0.00    +0.000 C 
ATOM     18  C2  UNL     1       2.067  61.792  68.820  0.00  0.00    +0.000 C 
ENDBRANCH  15  18
ENDBRANCH   1  15
TORSDOF 4
ENDMDL
MODEL 8
REMARK VINA RESULT:    -6.172      6.864      9.472
REMARK INTER + INTRA:          -8.657
REMARK INTER:                  -7.940
REMARK INTRA:                  -0.718
REMARK UNBOUND:                -1.042
REMARK  Name = ligantes_geracao2\Derivado_016.pdb
REMARK  6 active torsions:
REMARK  status: ('A' for Active; 'I' for Inactive)
REMARK    1  A    between atoms: C1_1  and  C2_2
REMARK    2  A    between atoms: C2_2  and  C3_3
REMARK    3  A    between atoms: C3_3  and  C4_5
REMARK    4  A    between atoms: C5_6  and  C6_7
REMARK    5  A    between atoms: C9_10  and  C10_11
REMARK    6  A    between atoms: C14_16  and  C15_17
REMARK                            x       y       z     vdW  Elec       q    Type
REMARK                         _______ _______ _______ _____ _____    ______ ____
ROOT
ATOM      1  C4  UNL     1       1.998  61.904  71.069  0.00  0.00    +0.000 C 
ATOM      2  C5  UNL     1       2.240  62.483  69.668  0.00  0.00    +0.000 C 
ATOM      3  C6  UNL     1       2.882  63.863  69.690  0.00  0.00    +0.000 C 
ATOM      4  C7  UNL     1       3.140  61.433  69.019  0.00  0.00    +0.000 C 
ATOM      5  C8  UNL     1       2.586  60.096  69.502  0.00  0.00    +0.000 C 
ATOM      6  C9  UNL     1       1.833  60.390  70.817  0.00  0.00    +0.000 C 
ENDROOT
BRANCH   6   7
ATOM      7  C10 UNL     1       2.216  59.493  71.979  0.00  0.00    +0.000 C 
ATOM      8  C11 UNL     1       1.260  58.596  72.462  0.00  0.00    +0.000 C 
ATOM      9  N1  UNL     1       1.454  57.727  73.480  0.00  0.00    +0.000 NA
ATOM     10  C12 UNL     1       2.657  57.748  74.079  0.00  0.00    +0.000 C 
ATOM     11  C13 UNL     1       3.680  58.593  73.698  0.00  0.00    +0.000 C 
ATOM     12  C14 UNL     1       3.460  59.475  72.634  0.00  0.00    +0.000 C 
BRANCH  12  13
ATOM     13  C15 UNL     1       4.548  60.331  72.258  0.00  0.00    +0.000 C 
ATOM     14  N2  UNL     1       5.437  61.013  71.956  0.00  0.00    +0.000 NA
ENDBRANCH  12  13
ENDBRANCH   6   7
BRANCH   1  15
ATOM     15  C3  UNL     1       0.791  62.466  71.817  0.00  0.00    +0.000 C 
ATOM     16  O1  UNL     1       0.971  63.139  72.835  0.00  0.00    +0.000 OA
BRANCH  15  18
ATOM     17  C1  UNL     1      -1.391  61.298  72.323  0.00  0.00    +0.000 C 
ATOM     18  C2  UNL     1      -0.606  62.129  71.323  0.00  0.00    +0.000 C 
ENDBRANCH  15  18
ENDBRANCH   1  15
TORSDOF 4
ENDMDL
MODEL 9
REMARK VINA RESULT:    -5.978     19.511     21.201
REMARK INTER + INTRA:          -8.418
REMARK INTER:                  -7.228
REMARK INTRA:                  -1.190
REMARK UNBOUND:                -1.042
REMARK  Name = ligantes_geracao2\Derivado_016.pdb
REMARK  6 active torsions:
REMARK  status: ('A' for Active; 'I' for Inactive)
REMARK    1  A    between atoms: C1_1  and  C2_2
REMARK    2  A    between atoms: C2_2  and  C3_3
REMARK    3  A    between atoms: C3_3  and  C4_5
REMARK    4  A    between atoms: C5_6  and  C6_7
REMARK    5  A    between atoms: C9_10  and  C10_11
REMARK    6  A    between atoms: C14_16  and  C15_17
REMARK                            x       y       z     vdW  Elec       q    Type
REMARK                         _______ _______ _______ _____ _____    ______ ____
ROOT
ATOM      1  C4  UNL     1      14.088  50.023  58.282  0.00  0.00    +0.000 C 
ATOM      2  C5  UNL     1      12.798  50.142  57.459  0.00  0.00    +0.000 C 
ATOM      3  C6  UNL     1      12.770  49.219  56.248  0.00  0.00    +0.000 C 
ATOM      4  C7  UNL     1      11.713  49.797  58.478  0.00  0.00    +0.000 C 
ATOM      5  C8  UNL     1      12.177  50.457  59.774  0.00  0.00    +0.000 C 
ATOM      6  C9  UNL     1      13.706  50.623  59.653  0.00  0.00    +0.000 C 
ENDROOT
BRANCH   6   7
ATOM      7  C10 UNL     1      14.495  50.094  60.835  0.00  0.00    +0.000 C 
ATOM      8  C11 UNL     1      14.179  48.823  61.322  0.00  0.00    +0.000 C 
ATOM      9  N1  UNL     1      14.800  48.213  62.358  0.00  0.00    +0.000 NA
ATOM     10  C12 UNL     1      15.782  48.896  62.971  0.00  0.00    +0.000 C 
ATOM     11  C13 UNL     1      16.179  50.161  62.586  0.00  0.00    +0.000 C 
ATOM     12  C14 UNL     1      15.531  50.768  61.504  0.00  0.00    +0.000 C 
BRANCH  12  13
ATOM     13  C15 UNL     1      15.979  52.077  61.126  0.00  0.00    +0.000 C 
ATOM     14  N2  UNL     1      16.352  53.133  60.822  0.00  0.00    +0.000 NA
ENDBRANCH  12  13
ENDBRANCH   6   7
BRANCH   1  15
ATOM     15  C3  UNL     1      15.310  50.730  57.701  0.00  0.00    +0.000 C 
ATOM     16  O1  UNL     1      15.251  51.938  57.458  0.00  0.00    +0.000 OA
BRANCH  15  18
ATOM     17  C1  UNL     1      16.653  48.654  58.221  0.00  0.00    +0.000 C 
ATOM     18  C2  UNL     1      16.551  49.914  57.378  0.00  0.00    +0.000 C 
ENDBRANCH  15  18
ENDBRANCH   1  15
TORSDOF 4
ENDMDL
