MODEL 1
REMARK VINA RESULT:    -5.285      0.000      0.000
REMARK INTER + INTRA:          -8.728
REMARK INTER:                  -6.830
REMARK INTRA:                  -1.898
REMARK UNBOUND:                -1.898
REMARK  Name = ligantes_geracao2\Derivado_012.pdb
REMARK  8 active torsions:
REMARK  status: ('A' for Active; 'I' for Inactive)
REMARK    1  A    between atoms: C1_1  and  C2_2
REMARK    2  A    between atoms: C2_2  and  C3_3
REMARK    3  A    between atoms: C3_3  and  C4_4
REMARK    4  A    between atoms: C3_3  and  C5_5
REMARK    5  A    between atoms: C5_5  and  C6_7
REMARK    6  A    between atoms: C7_8  and  C8_9
REMARK    7  A    between atoms: C11_12  and  C12_13
REMARK    8  A    between atoms: C16_18  and  C17_19
REMARK                            x       y       z     vdW  Elec       q    Type
REMARK                         _______ _______ _______ _____ _____    ______ ____
ROOT
ATOM      1  C6  UNL     1      18.471  -7.978   2.439  0.00  0.00    +0.000 C 
ATOM      2  C7  UNL     1      19.868  -8.295   2.987  0.00  0.00    +0.000 C 
ATOM      3  C8  UNL     1      19.866  -8.666   4.464  0.00  0.00    +0.000 C 
ATOM      4  C9  UNL     1      20.632  -6.999   2.724  0.00  0.00    +0.000 C 
ATOM      5  C10 UNL     1      20.186  -6.604   1.322  0.00  0.00    +0.000 C 
ATOM      6  C11 UNL     1      18.728  -7.093   1.192  0.00  0.00    +0.000 C 
ENDROOT
BRANCH   6   7
ATOM      7  C12 UNL     1      17.709  -5.975   1.056  0.00  0.00    +0.000 C 
ATOM      8  C13 UNL     1      17.698  -4.902   1.946  0.00  0.00    +0.000 C 
ATOM      9  N1  UNL     1      16.815  -3.879   1.911  0.00  0.00    +0.000 NA
ATOM     10  C14 UNL     1      15.872  -3.916   0.952  0.00  0.00    +0.000 C 
ATOM     11  C15 UNL     1      15.776  -4.929   0.019  0.00  0.00    +0.000 C 
ATOM     12  C16 UNL     1      16.705  -5.971   0.069  0.00  0.00    +0.000 C 
BRANCH  12  13
ATOM     13  C17 UNL     1      16.605  -7.009  -0.919  0.00  0.00    +0.000 C 
ATOM     14  N2  UNL     1      16.565  -7.845  -1.724  0.00  0.00    +0.000 NA
ENDBRANCH  12  13
ENDBRANCH   6   7
BRANCH   1  15
ATOM     15  C5  UNL     1      17.551  -9.149   2.085  0.00  0.00    +0.000 C 
ATOM     16  O1  UNL     1      18.003 -10.054   1.374  0.00  0.00    +0.000 OA
BRANCH  15  17
ATOM     17  C3  UNL     1      16.139  -9.237   2.667  0.00  0.00    +0.000 C 
ATOM     18  C4  UNL     1      15.129  -9.343   1.527  0.00  0.00    +0.000 C 
BRANCH  17  20
ATOM     19  C1  UNL     1      14.733  -7.128   2.936  0.00  0.00    +0.000 C 
ATOM     20  C2  UNL     1      15.812  -8.015   3.547  0.00  0.00    +0.000 C 
ENDBRANCH  17  20
ENDBRANCH  15  17
ENDBRANCH   1  15
TORSDOF 5
ENDMDL
MODEL 2
REMARK VINA RESULT:    -5.261     22.561     25.001
REMARK INTER + INTRA:          -8.697
REMARK INTER:                  -7.203
REMARK INTRA:                  -1.494
REMARK UNBOUND:                -1.898
REMARK  Name = ligantes_geracao2\Derivado_012.pdb
REMARK  8 active torsions:
REMARK  status: ('A' for Active; 'I' for Inactive)
REMARK    1  A    between atoms: C1_1  and  C2_2
REMARK    2  A    between atoms: C2_2  and  C3_3
REMARK    3  A    between atoms: C3_3  and  C4_4
REMARK    4  A    between atoms: C3_3  and  C5_5
REMARK    5  A    between atoms: C5_5  and  C6_7
REMARK    6  A    between atoms: C7_8  and  C8_9
REMARK    7  A    between atoms: C11_12  and  C12_13
REMARK    8  A    between atoms: C16_18  and  C17_19
REMARK                            x       y       z     vdW  Elec       q    Type
REMARK                         _______ _______ _______ _____ _____    ______ ____
ROOT
ATOM      1  C6  UNL     1       1.749  -0.565  20.364  0.00  0.00    +0.000 C 
ATOM      2  C7  UNL     1       2.101  -0.328  21.838  0.00  0.00    +0.000 C 
ATOM      3  C8  UNL     1       3.294   0.600  22.031  0.00  0.00    +0.000 C 
ATOM      4  C9  UNL     1       2.386  -1.740  22.345  0.00  0.00    +0.000 C 
ATOM      5  C10 UNL     1       1.278  -2.573  21.715  0.00  0.00    +0.000 C 
ATOM      6  C11 UNL     1       0.974  -1.909  20.355  0.00  0.00    +0.000 C 
ENDROOT
BRANCH   6   7
ATOM      7  C12 UNL     1       1.324  -2.770  19.154  0.00  0.00    +0.000 C 
ATOM      8  C13 UNL     1       2.525  -3.477  19.102  0.00  0.00    +0.000 C 
ATOM      9  N1  UNL     1       2.923  -4.246  18.065  0.00  0.00    +0.000 NA
ATOM     10  C14 UNL     1       2.101  -4.318  17.003  0.00  0.00    +0.000 C 
ATOM     11  C15 UNL     1       0.889  -3.657  16.934  0.00  0.00    +0.000 C 
ATOM     12  C16 UNL     1       0.494  -2.875  18.022  0.00  0.00    +0.000 C 
BRANCH  12  13
ATOM     13  C17 UNL     1      -0.776  -2.209  17.944  0.00  0.00    +0.000 C 
ATOM     14  N2  UNL     1      -1.798  -1.667  17.840  0.00  0.00    +0.000 NA
ENDBRANCH  12  13
ENDBRANCH   6   7
BRANCH   1  15
ATOM     15  C5  UNL     1       0.955   0.516  19.628  0.00  0.00    +0.000 C 
ATOM     16  O1  UNL     1      -0.162   0.819  20.062  0.00  0.00    +0.000 OA
BRANCH  15  17
ATOM     17  C3  UNL     1       1.565   1.260  18.439  0.00  0.00    +0.000 C 
ATOM     18  C4  UNL     1       2.303   0.265  17.546  0.00  0.00    +0.000 C 
BRANCH  17  20
ATOM     19  C1  UNL     1       1.858   3.734  18.976  0.00  0.00    +0.000 C 
ATOM     20  C2  UNL     1       2.531   2.368  18.899  0.00  0.00    +0.000 C 
ENDBRANCH  17  20
ENDBRANCH  15  17
ENDBRANCH   1  15
TORSDOF 5
ENDMDL
MODEL 3
REMARK VINA RESULT:    -5.253     23.334     25.709
REMARK INTER + INTRA:          -8.686
REMARK INTER:                  -6.781
REMARK INTRA:                  -1.905
REMARK UNBOUND:                -1.898
REMARK  Name = ligantes_geracao2\Derivado_012.pdb
REMARK  8 active torsions:
REMARK  status: ('A' for Active; 'I' for Inactive)
REMARK    1  A    between atoms: C1_1  and  C2_2
REMARK    2  A    between atoms: C2_2  and  C3_3
REMARK    3  A    between atoms: C3_3  and  C4_4
REMARK    4  A    between atoms: C3_3  and  C5_5
REMARK    5  A    between atoms: C5_5  and  C6_7
REMARK    6  A    between atoms: C7_8  and  C8_9
REMARK    7  A    between atoms: C11_12  and  C12_13
REMARK    8  A    between atoms: C16_18  and  C17_19
REMARK                            x       y       z     vdW  Elec       q    Type
REMARK                         _______ _______ _______ _____ _____    ______ ____
ROOT
ATOM      1  C6  UNL     1       1.939   1.000  20.339  0.00  0.00    +0.000 C 
ATOM      2  C7  UNL     1       2.710   1.585  21.529  0.00  0.00    +0.000 C 
ATOM      3  C8  UNL     1       4.081   2.132  21.149  0.00  0.00    +0.000 C 
ATOM      4  C9  UNL     1       2.813   0.395  22.479  0.00  0.00    +0.000 C 
ATOM      5  C10 UNL     1       1.426  -0.232  22.412  0.00  0.00    +0.000 C 
ATOM      6  C11 UNL     1       0.923   0.015  20.974  0.00  0.00    +0.000 C 
ENDROOT
BRANCH   6   7
ATOM      7  C12 UNL     1       0.751  -1.250  20.152  0.00  0.00    +0.000 C 
ATOM      8  C13 UNL     1       1.752  -2.219  20.108  0.00  0.00    +0.000 C 
ATOM      9  N1  UNL     1       1.691  -3.360  19.386  0.00  0.00    +0.000 NA
ATOM     10  C14 UNL     1       0.585  -3.559  18.647  0.00  0.00    +0.000 C 
ATOM     11  C15 UNL     1      -0.471  -2.669  18.603  0.00  0.00    +0.000 C 
ATOM     12  C16 UNL     1      -0.388  -1.501  19.365  0.00  0.00    +0.000 C 
BRANCH  12  13
ATOM     13  C17 UNL     1      -1.501  -0.593  19.324  0.00  0.00    +0.000 C 
ATOM     14  N2  UNL     1      -2.374   0.172  19.294  0.00  0.00    +0.000 NA
ENDBRANCH  12  13
ENDBRANCH   6   7
BRANCH   1  15
ATOM     15  C5  UNL     1       1.228   1.968  19.392  0.00  0.00    +0.000 C 
ATOM     16  O1  UNL     1       0.435   2.783  19.876  0.00  0.00    +0.000 OA
BRANCH  15  17
ATOM     17  C3  UNL     1       1.555   1.981  17.898  0.00  0.00    +0.000 C 
ATOM     18  C4  UNL     1       0.266   1.801  17.098  0.00  0.00    +0.000 C 
BRANCH  17  20
ATOM     19  C1  UNL     1       1.912  -0.274  16.765  0.00  0.00    +0.000 C 
ATOM     20  C2  UNL     1       2.561   0.875  17.528  0.00  0.00    +0.000 C 
ENDBRANCH  17  20
ENDBRANCH  15  17
ENDBRANCH   1  15
TORSDOF 5
ENDMDL
MODEL 4
REMARK VINA RESULT:    -5.209      1.564      4.186
REMARK INTER + INTRA:          -8.630
REMARK INTER:                  -7.254
REMARK INTRA:                  -1.376
REMARK UNBOUND:                -1.898
REMARK  Name = ligantes_geracao2\Derivado_012.pdb
REMARK  8 active torsions:
REMARK  status: ('A' for Active; 'I' for Inactive)
REMARK    1  A    between atoms: C1_1  and  C2_2
REMARK    2  A    between atoms: C2_2  and  C3_3
REMARK    3  A    between atoms: C3_3  and  C4_4
REMARK    4  A    between atoms: C3_3  and  C5_5
REMARK    5  A    between atoms: C5_5  and  C6_7
REMARK    6  A    between atoms: C7_8  and  C8_9
REMARK    7  A    between atoms: C11_12  and  C12_13
REMARK    8  A    between atoms: C16_18  and  C17_19
REMARK                            x       y       z     vdW  Elec       q    Type
REMARK                         _______ _______ _______ _____ _____    ______ ____
ROOT
ATOM      1  C6  UNL     1      17.302  -7.322   1.621  0.00  0.00    +0.000 C 
ATOM      2  C7  UNL     1      16.947  -8.446   2.601  0.00  0.00    +0.000 C 
ATOM      3  C8  UNL     1      17.121  -9.840   2.010  0.00  0.00    +0.000 C 
ATOM      4  C9  UNL     1      15.489  -8.147   2.941  0.00  0.00    +0.000 C 
ATOM      5  C10 UNL     1      15.472  -6.635   3.123  0.00  0.00    +0.000 C 
ATOM      6  C11 UNL     1      16.533  -6.083   2.148  0.00  0.00    +0.000 C 
ENDROOT
BRANCH   6   7
ATOM      7  C12 UNL     1      15.960  -5.236   1.024  0.00  0.00    +0.000 C 
ATOM      8  C13 UNL     1      15.518  -5.820  -0.162  0.00  0.00    +0.000 C 
ATOM      9  N1  UNL     1      15.017  -5.141  -1.217  0.00  0.00    +0.000 NA
ATOM     10  C14 UNL     1      14.959  -3.801  -1.112  0.00  0.00    +0.000 C 
ATOM     11  C15 UNL     1      15.374  -3.108   0.008  0.00  0.00    +0.000 C 
ATOM     12  C16 UNL     1      15.880  -3.832   1.090  0.00  0.00    +0.000 C 
BRANCH  12  13
ATOM     13  C17 UNL     1      16.291  -3.099   2.256  0.00  0.00    +0.000 C 
ATOM     14  N2  UNL     1      16.616  -2.472   3.177  0.00  0.00    +0.000 NA
ENDBRANCH  12  13
ENDBRANCH   6   7
BRANCH   1  15
ATOM     15  C5  UNL     1      18.779  -6.987   1.409  0.00  0.00    +0.000 C 
ATOM     16  O1  UNL     1      19.263  -7.158   0.284  0.00  0.00    +0.000 OA
BRANCH  15  17
ATOM     17  C3  UNL     1      19.612  -6.376   2.538  0.00  0.00    +0.000 C 
ATOM     18  C4  UNL     1      20.173  -5.032   2.080  0.00  0.00    +0.000 C 
BRANCH  17  20
ATOM     19  C1  UNL     1      20.428  -8.117   4.211  0.00  0.00    +0.000 C 
ATOM     20  C2  UNL     1      20.762  -7.309   2.962  0.00  0.00    +0.000 C 
ENDBRANCH  17  20
ENDBRANCH  15  17
ENDBRANCH   1  15
TORSDOF 5
ENDMDL
MODEL 5
REMARK VINA RESULT:    -5.196     23.054     24.943
REMARK INTER + INTRA:          -8.613
REMARK INTER:                  -7.224
REMARK INTRA:                  -1.388
REMARK UNBOUND:                -1.898
REMARK  Name = ligantes_geracao2\Derivado_012.pdb
REMARK  8 active torsions:
REMARK  status: ('A' for Active; 'I' for Inactive)
REMARK    1  A    between atoms: C1_1  and  C2_2
REMARK    2  A    between atoms: C2_2  and  C3_3
REMARK    3  A    between atoms: C3_3  and  C4_4
REMARK    4  A    between atoms: C3_3  and  C5_5
REMARK    5  A    between atoms: C5_5  and  C6_7
REMARK    6  A    between atoms: C7_8  and  C8_9
REMARK    7  A    between atoms: C11_12  and  C12_13
REMARK    8  A    between atoms: C16_18  and  C17_19
REMARK                            x       y       z     vdW  Elec       q    Type
REMARK                         _______ _______ _______ _____ _____    ______ ____
ROOT
ATOM      1  C6  UNL     1       0.943  -0.100  19.275  0.00  0.00    +0.000 C 
ATOM      2  C7  UNL     1       1.581   1.217  18.818  0.00  0.00    +0.000 C 
ATOM      3  C8  UNL     1       0.702   2.435  19.078  0.00  0.00    +0.000 C 
ATOM      4  C9  UNL     1       1.803   0.981  17.326  0.00  0.00    +0.000 C 
ATOM      5  C10 UNL     1       2.333  -0.445  17.269  0.00  0.00    +0.000 C 
ATOM      6  C11 UNL     1       1.651  -1.194  18.434  0.00  0.00    +0.000 C 
ENDROOT
BRANCH   6   7
ATOM      7  C12 UNL     1       0.698  -2.291  17.992  0.00  0.00    +0.000 C 
ATOM      8  C13 UNL     1      -0.602  -1.993  17.588  0.00  0.00    +0.000 C 
ATOM      9  N1  UNL     1      -1.518  -2.908  17.202  0.00  0.00    +0.000 NA
ATOM     10  C14 UNL     1      -1.144  -4.200  17.226  0.00  0.00    +0.000 C 
ATOM     11  C15 UNL     1       0.114  -4.619  17.614  0.00  0.00    +0.000 C 
ATOM     12  C16 UNL     1       1.048  -3.654  18.001  0.00  0.00    +0.000 C 
BRANCH  12  13
ATOM     13  C17 UNL     1       2.357  -4.104  18.384  0.00  0.00    +0.000 C 
ATOM     14  N2  UNL     1       3.401  -4.505  18.697  0.00  0.00    +0.000 NA
ENDBRANCH  12  13
ENDBRANCH   6   7
BRANCH   1  15
ATOM     15  C5  UNL     1       0.996  -0.450  20.763  0.00  0.00    +0.000 C 
ATOM     16  O1  UNL     1      -0.071  -0.554  21.379  0.00  0.00    +0.000 OA
BRANCH  15  17
ATOM     17  C3  UNL     1       2.331  -0.746  21.449  0.00  0.00    +0.000 C 
ATOM     18  C4  UNL     1       2.260  -2.116  22.121  0.00  0.00    +0.000 C 
BRANCH  17  20
ATOM     19  C1  UNL     1       3.752   1.299  21.992  0.00  0.00    +0.000 C 
ATOM     20  C2  UNL     1       2.684   0.332  22.491  0.00  0.00    +0.000 C 
ENDBRANCH  17  20
ENDBRANCH  15  17
ENDBRANCH   1  15
TORSDOF 5
ENDMDL
MODEL 6
REMARK VINA RESULT:    -5.176      2.370      5.068
REMARK INTER + INTRA:          -8.587
REMARK INTER:                  -6.968
REMARK INTRA:                  -1.618
REMARK UNBOUND:                -1.898
REMARK  Name = ligantes_geracao2\Derivado_012.pdb
REMARK  8 active torsions:
REMARK  status: ('A' for Active; 'I' for Inactive)
REMARK    1  A    between atoms: C1_1  and  C2_2
REMARK    2  A    between atoms: C2_2  and  C3_3
REMARK    3  A    between atoms: C3_3  and  C4_4
REMARK    4  A    between atoms: C3_3  and  C5_5
REMARK    5  A    between atoms: C5_5  and  C6_7
REMARK    6  A    between atoms: C7_8  and  C8_9
REMARK    7  A    between atoms: C11_12  and  C12_13
REMARK    8  A    between atoms: C16_18  and  C17_19
REMARK                            x       y       z     vdW  Elec       q    Type
REMARK                         _______ _______ _______ _____ _____    ______ ____
ROOT
ATOM      1  C6  UNL     1      16.544  -7.335   1.180  0.00  0.00    +0.000 C 
ATOM      2  C7  UNL     1      15.864  -7.742  -0.132  0.00  0.00    +0.000 C 
ATOM      3  C8  UNL     1      14.505  -8.401   0.071  0.00  0.00    +0.000 C 
ATOM      4  C9  UNL     1      16.878  -8.702  -0.751  0.00  0.00    +0.000 C 
ATOM      5  C10 UNL     1      18.213  -8.014  -0.502  0.00  0.00    +0.000 C 
ATOM      6  C11 UNL     1      18.054  -7.259   0.834  0.00  0.00    +0.000 C 
ENDROOT
BRANCH   6   7
ATOM      7  C12 UNL     1      18.932  -7.791   1.954  0.00  0.00    +0.000 C 
ATOM      8  C13 UNL     1      18.801  -9.102   2.409  0.00  0.00    +0.000 C 
ATOM      9  N1  UNL     1      19.524  -9.646   3.412  0.00  0.00    +0.000 NA
ATOM     10  C14 UNL     1      20.424  -8.853   4.021  0.00  0.00    +0.000 C 
ATOM     11  C15 UNL     1      20.639  -7.536   3.665  0.00  0.00    +0.000 C 
ATOM     12  C16 UNL     1      19.886  -6.997   2.619  0.00  0.00    +0.000 C 
BRANCH  12  13
ATOM     13  C17 UNL     1      20.133  -5.631   2.248  0.00  0.00    +0.000 C 
ATOM     14  N2  UNL     1      20.304  -4.531   1.919  0.00  0.00    +0.000 NA
ENDBRANCH  12  13
ENDBRANCH   6   7
BRANCH   1  15
ATOM     15  C5  UNL     1      16.085  -6.046   1.863  0.00  0.00    +0.000 C 
ATOM     16  O1  UNL     1      15.287  -6.134   2.804  0.00  0.00    +0.000 OA
BRANCH  15  17
ATOM     17  C3  UNL     1      16.662  -4.692   1.446  0.00  0.00    +0.000 C 
ATOM     18  C4  UNL     1      16.566  -3.720   2.620  0.00  0.00    +0.000 C 
BRANCH  17  20
ATOM     19  C1  UNL     1      16.760  -4.191  -1.051  0.00  0.00    +0.000 C 
ATOM     20  C2  UNL     1      15.925  -4.114   0.223  0.00  0.00    +0.000 C 
ENDBRANCH  17  20
ENDBRANCH  15  17
ENDBRANCH   1  15
TORSDOF 5
ENDMDL
MODEL 7
REMARK VINA RESULT:    -5.121      1.975      4.542
REMARK INTER + INTRA:          -8.517
REMARK INTER:                  -7.325
REMARK INTRA:                  -1.192
REMARK UNBOUND:                -1.898
REMARK  Name = ligantes_geracao2\Derivado_012.pdb
REMARK  8 active torsions:
REMARK  status: ('A' for Active; 'I' for Inactive)
REMARK    1  A    between atoms: C1_1  and  C2_2
REMARK    2  A    between atoms: C2_2  and  C3_3
REMARK    3  A    between atoms: C3_3  and  C4_4
REMARK    4  A    between atoms: C3_3  and  C5_5
REMARK    5  A    between atoms: C5_5  and  C6_7
REMARK    6  A    between atoms: C7_8  and  C8_9
REMARK    7  A    between atoms: C11_12  and  C12_13
REMARK    8  A    between atoms: C16_18  and  C17_19
REMARK                            x       y       z     vdW  Elec       q    Type
REMARK                         _______ _______ _______ _____ _____    ______ ____
ROOT
ATOM      1  C6  UNL     1      17.606  -5.780   0.407  0.00  0.00    +0.000 C 
ATOM      2  C7  UNL     1      17.726  -5.516  -1.099  0.00  0.00    +0.000 C 
ATOM      3  C8  UNL     1      18.767  -4.459  -1.445  0.00  0.00    +0.000 C 
ATOM      4  C9  UNL     1      16.314  -5.073  -1.475  0.00  0.00    +0.000 C 
ATOM      5  C10 UNL     1      15.423  -6.042  -0.709  0.00  0.00    +0.000 C 
ATOM      6  C11 UNL     1      16.186  -6.376   0.591  0.00  0.00    +0.000 C 
ENDROOT
BRANCH   6   7
ATOM      7  C12 UNL     1      15.507  -5.875   1.854  0.00  0.00    +0.000 C 
ATOM      8  C13 UNL     1      15.098  -4.547   1.970  0.00  0.00    +0.000 C 
ATOM      9  N1  UNL     1      14.508  -4.015   3.063  0.00  0.00    +0.000 NA
ATOM     10  C14 UNL     1      14.320  -4.830   4.117  0.00  0.00    +0.000 C 
ATOM     11  C15 UNL     1      14.689  -6.161   4.124  0.00  0.00    +0.000 C 
ATOM     12  C16 UNL     1      15.289  -6.692   2.979  0.00  0.00    +0.000 C 
BRANCH  12  13
ATOM     13  C17 UNL     1      15.650  -8.082   2.994  0.00  0.00    +0.000 C 
ATOM     14  N2  UNL     1      15.906  -9.214   3.022  0.00  0.00    +0.000 NA
ENDBRANCH  12  13
ENDBRANCH   6   7
BRANCH   1  15
ATOM     15  C5  UNL     1      18.654  -6.676   1.070  0.00  0.00    +0.000 C 
ATOM     16  O1  UNL     1      18.887  -7.778   0.561  0.00  0.00    +0.000 OA
BRANCH  15  17
ATOM     17  C3  UNL     1      19.451  -6.183   2.279  0.00  0.00    +0.000 C 
ATOM     18  C4  UNL     1      19.933  -4.758   2.019  0.00  0.00    +0.000 C 
BRANCH  17  20
ATOM     19  C1  UNL     1      20.572  -7.742   3.955  0.00  0.00    +0.000 C 
ATOM     20  C2  UNL     1      20.654  -7.099   2.575  0.00  0.00    +0.000 C 
ENDBRANCH  17  20
ENDBRANCH  15  17
ENDBRANCH   1  15
TORSDOF 5
ENDMDL
MODEL 8
REMARK VINA RESULT:    -5.065      2.130      4.750
REMARK INTER + INTRA:          -8.444
REMARK INTER:                  -7.142
REMARK INTRA:                  -1.302
REMARK UNBOUND:                -1.898
REMARK  Name = ligantes_geracao2\Derivado_012.pdb
REMARK  8 active torsions:
REMARK  status: ('A' for Active; 'I' for Inactive)
REMARK    1  A    between atoms: C1_1  and  C2_2
REMARK    2  A    between atoms: C2_2  and  C3_3
REMARK    3  A    between atoms: C3_3  and  C4_4
REMARK    4  A    between atoms: C3_3  and  C5_5
REMARK    5  A    between atoms: C5_5  and  C6_7
REMARK    6  A    between atoms: C7_8  and  C8_9
REMARK    7  A    between atoms: C11_12  and  C12_13
REMARK    8  A    between atoms: C16_18  and  C17_19
REMARK                            x       y       z     vdW  Elec       q    Type
REMARK                         _______ _______ _______ _____ _____    ______ ____
ROOT
ATOM      1  C6  UNL     1      16.579  -6.446   1.185  0.00  0.00    +0.000 C 
ATOM      2  C7  UNL     1      15.390  -6.041   2.065  0.00  0.00    +0.000 C 
ATOM      3  C8  UNL     1      15.293  -6.846   3.355  0.00  0.00    +0.000 C 
ATOM      4  C9  UNL     1      14.195  -6.287   1.146  0.00  0.00    +0.000 C 
ATOM      5  C10 UNL     1      14.663  -5.741  -0.196  0.00  0.00    +0.000 C 
ATOM      6  C11 UNL     1      16.185  -5.990  -0.244  0.00  0.00    +0.000 C 
ENDROOT
BRANCH   6   7
ATOM      7  C12 UNL     1      16.616  -6.985  -1.308  0.00  0.00    +0.000 C 
ATOM      8  C13 UNL     1      16.059  -8.261  -1.366  0.00  0.00    +0.000 C 
ATOM      9  N1  UNL     1      16.400  -9.212  -2.263  0.00  0.00    +0.000 NA
ATOM     10  C14 UNL     1      17.360  -8.900  -3.153  0.00  0.00    +0.000 C 
ATOM     11  C15 UNL     1      17.992  -7.673  -3.190  0.00  0.00    +0.000 C 
ATOM     12  C16 UNL     1      17.616  -6.702  -2.258  0.00  0.00    +0.000 C 
BRANCH  12  13
ATOM     13  C17 UNL     1      18.268  -5.423  -2.320  0.00  0.00    +0.000 C 
ATOM     14  N2  UNL     1      18.759  -4.372  -2.364  0.00  0.00    +0.000 NA
ENDBRANCH  12  13
ENDBRANCH   6   7
BRANCH   1  15
ATOM     15  C5  UNL     1      17.965  -5.914   1.554  0.00  0.00    +0.000 C 
ATOM     16  O1  UNL     1      18.063  -4.735   1.912  0.00  0.00    +0.000 OA
BRANCH  15  17
ATOM     17  C3  UNL     1      19.182  -6.841   1.562  0.00  0.00    +0.000 C 
ATOM     18  C4  UNL     1      18.725  -8.271   1.844  0.00  0.00    +0.000 C 
BRANCH  17  20
ATOM     19  C1  UNL     1      20.611  -7.539   3.554  0.00  0.00    +0.000 C 
ATOM     20  C2  UNL     1      20.220  -6.405   2.614  0.00  0.00    +0.000 C 
ENDBRANCH  17  20
ENDBRANCH  15  17
ENDBRANCH   1  15
TORSDOF 5
ENDMDL
MODEL 9
REMARK VINA RESULT:    -4.963     22.577     24.889
REMARK INTER + INTRA:          -8.312
REMARK INTER:                  -6.409
REMARK INTRA:                  -1.903
REMARK UNBOUND:                -1.898
REMARK  Name = ligantes_geracao2\Derivado_012.pdb
REMARK  8 active torsions:
REMARK  status: ('A' for Active; 'I' for Inactive)
REMARK    1  A    between atoms: C1_1  and  C2_2
REMARK    2  A    between atoms: C2_2  and  C3_3
REMARK    3  A    between atoms: C3_3  and  C4_4
REMARK    4  A    between atoms: C3_3  and  C5_5
REMARK    5  A    between atoms: C5_5  and  C6_7
REMARK    6  A    between atoms: C7_8  and  C8_9
REMARK    7  A    between atoms: C11_12  and  C12_13
REMARK    8  A    between atoms: C16_18  and  C17_19
REMARK                            x       y       z     vdW  Elec       q    Type
REMARK                         _______ _______ _______ _____ _____    ______ ____
ROOT
ATOM      1  C6  UNL     1       1.564  -2.366  18.523  0.00  0.00    +0.000 C 
ATOM      2  C7  UNL     1       2.265  -3.234  17.471  0.00  0.00    +0.000 C 
ATOM      3  C8  UNL     1       3.314  -4.169  18.061  0.00  0.00    +0.000 C 
ATOM      4  C9  UNL     1       2.886  -2.195  16.539  0.00  0.00    +0.000 C 
ATOM      5  C10 UNL     1       1.784  -1.154  16.387  0.00  0.00    +0.000 C 
ATOM      6  C11 UNL     1       1.026  -1.146  17.732  0.00  0.00    +0.000 C 
ENDROOT
BRANCH   6   7
ATOM      7  C12 UNL     1       1.159   0.152  18.509  0.00  0.00    +0.000 C 
ATOM      8  C13 UNL     1       2.406   0.740  18.718  0.00  0.00    +0.000 C 
ATOM      9  N1  UNL     1       2.616   1.878  19.415  0.00  0.00    +0.000 NA
ATOM     10  C14 UNL     1       1.537   2.473  19.957  0.00  0.00    +0.000 C 
ATOM     11  C15 UNL     1       0.253   1.983  19.825  0.00  0.00    +0.000 C 
ATOM     12  C16 UNL     1       0.059   0.809  19.092  0.00  0.00    +0.000 C 
BRANCH  12  13
ATOM     13  C17 UNL     1      -1.284   0.321  18.948  0.00  0.00    +0.000 C 
ATOM     14  N2  UNL     1      -2.355  -0.104  18.810  0.00  0.00    +0.000 NA
ENDBRANCH  12  13
ENDBRANCH   6   7
BRANCH   1  15
ATOM     15  C5  UNL     1       0.448  -3.000  19.355  0.00  0.00    +0.000 C 
ATOM     16  O1  UNL     1      -0.461  -3.591  18.761  0.00  0.00    +0.000 OA
BRANCH  15  17
ATOM     17  C3  UNL     1       0.502  -2.976  20.884  0.00  0.00    +0.000 C 
ATOM     18  C4  UNL     1      -0.738  -2.265  21.421  0.00  0.00    +0.000 C 
BRANCH  17  20
ATOM     19  C1  UNL     1       1.468  -0.961  22.111  0.00  0.00    +0.000 C 
ATOM     20  C2  UNL     1       1.774  -2.271  21.394  0.00  0.00    +0.000 C 
ENDBRANCH  17  20
ENDBRANCH  15  17
ENDBRANCH   1  15
TORSDOF 5
ENDMDL
