MODEL 1
REMARK VINA RESULT:    -7.239      0.000      0.000
REMARK INTER + INTRA:         -10.656
REMARK INTER:                  -9.354
REMARK INTRA:                  -1.302
REMARK UNBOUND:                -1.302
REMARK  Name = ligantes_geracao2\Derivado_015.pdb
REMARK  8 active torsions:
REMARK  status: ('A' for Active; 'I' for Inactive)
REMARK    1  A    between atoms: C1_1  and  C2_2
REMARK    2  A    between atoms: C2_2  and  C3_3
REMARK    3  A    between atoms: C3_3  and  C4_4
REMARK    4  A    between atoms: C4_4  and  C5_6
REMARK    5  A    between atoms: C6_7  and  C7_8
REMARK    6  A    between atoms: C10_11  and  C11_12
REMARK    7  A    between atoms: C14_16  and  C15_17
REMARK    8  A    between atoms: C16_18  and  C17_19
REMARK                            x       y       z     vdW  Elec       q    Type
REMARK                         _______ _______ _______ _____ _____    ______ ____
ROOT
ATOM      1  C5  UNL     1       2.885  62.945  70.125  0.00  0.00    +0.000 C 
ATOM      2  C6  UNL     1       4.040  63.529  69.281  0.00  0.00    +0.000 C 
ATOM      3  C7  UNL     1       3.887  65.009  68.944  0.00  0.00    +0.000 C 
ATOM      4  C8  UNL     1       5.278  63.309  70.152  0.00  0.00    +0.000 C 
ATOM      5  C9  UNL     1       5.068  61.919  70.717  0.00  0.00    +0.000 C 
ATOM      6  C10 UNL     1       3.559  61.851  71.023  0.00  0.00    +0.000 C 
ENDROOT
BRANCH   6   7
ATOM      7  C11 UNL     1       3.062  60.418  71.065  0.00  0.00    +0.000 C 
ATOM      8  C12 UNL     1       3.718  59.477  70.268  0.00  0.00    +0.000 C 
ATOM      9  N1  UNL     1       3.378  58.175  70.166  0.00  0.00    +0.000 NA
ATOM     10  C13 UNL     1       2.342  57.754  70.913  0.00  0.00    +0.000 C 
ATOM     11  C14 UNL     1       1.605  58.578  71.753  0.00  0.00    +0.000 C 
ATOM     12  C15 UNL     1       0.467  58.005  72.548  0.00  0.00    +0.000 C 
ATOM     13  C16 UNL     1       1.974  59.936  71.821  0.00  0.00    +0.000 C 
BRANCH  13  14
ATOM     14  C17 UNL     1       1.223  60.810  72.678  0.00  0.00    +0.000 C 
ATOM     15  N2  UNL     1       0.624  61.524  73.371  0.00  0.00    +0.000 NA
ENDBRANCH  13  14
ENDBRANCH   6   7
BRANCH   1  16
ATOM     16  C4  UNL     1       1.606  62.508  69.401  0.00  0.00    +0.000 C 
ATOM     17  O1  UNL     1       1.677  61.713  68.460  0.00  0.00    +0.000 OA
BRANCH  16  18
ATOM     18  C3  UNL     1       0.253  62.956  69.930  0.00  0.00    +0.000 C 
BRANCH  18  20
ATOM     19  C1  UNL     1       0.247  65.474  69.849  0.00  0.00    +0.000 C 
ATOM     20  C2  UNL     1       0.349  64.248  70.742  0.00  0.00    +0.000 C 
ENDBRANCH  18  20
ENDBRANCH  16  18
ENDBRANCH   1  16
TORSDOF 5
ENDMDL
MODEL 2
REMARK VINA RESULT:    -6.823      2.133      5.052
REMARK INTER + INTRA:         -10.119
REMARK INTER:                  -8.929
REMARK INTRA:                  -1.191
REMARK UNBOUND:                -1.302
REMARK  Name = ligantes_geracao2\Derivado_015.pdb
REMARK  8 active torsions:
REMARK  status: ('A' for Active; 'I' for Inactive)
REMARK    1  A    between atoms: C1_1  and  C2_2
REMARK    2  A    between atoms: C2_2  and  C3_3
REMARK    3  A    between atoms: C3_3  and  C4_4
REMARK    4  A    between atoms: C4_4  and  C5_6
REMARK    5  A    between atoms: C6_7  and  C7_8
REMARK    6  A    between atoms: C10_11  and  C11_12
REMARK    7  A    between atoms: C14_16  and  C15_17
REMARK    8  A    between atoms: C16_18  and  C17_19
REMARK                            x       y       z     vdW  Elec       q    Type
REMARK                         _______ _______ _______ _____ _____    ______ ____
ROOT
ATOM      1  C5  UNL     1       0.864  59.511  72.134  0.00  0.00    +0.000 C 
ATOM      2  C6  UNL     1       0.842  58.116  72.797  0.00  0.00    +0.000 C 
ATOM      3  C7  UNL     1      -0.505  57.726  73.398  0.00  0.00    +0.000 C 
ATOM      4  C8  UNL     1       1.210  57.163  71.658  0.00  0.00    +0.000 C 
ATOM      5  C9  UNL     1       2.316  57.897  70.928  0.00  0.00    +0.000 C 
ATOM      6  C10 UNL     1       1.875  59.374  70.944  0.00  0.00    +0.000 C 
ENDROOT
BRANCH   6   7
ATOM      7  C11 UNL     1       3.056  60.311  70.773  0.00  0.00    +0.000 C 
ATOM      8  C12 UNL     1       4.311  59.862  71.192  0.00  0.00    +0.000 C 
ATOM      9  N1  UNL     1       5.450  60.583  71.140  0.00  0.00    +0.000 NA
ATOM     10  C13 UNL     1       5.365  61.821  70.620  0.00  0.00    +0.000 C 
ATOM     11  C14 UNL     1       4.187  62.391  70.160  0.00  0.00    +0.000 C 
ATOM     12  C15 UNL     1       4.204  63.782  69.594  0.00  0.00    +0.000 C 
ATOM     13  C16 UNL     1       3.012  61.618  70.247  0.00  0.00    +0.000 C 
BRANCH  13  14
ATOM     14  C17 UNL     1       1.778  62.188  69.783  0.00  0.00    +0.000 C 
ATOM     15  N2  UNL     1       0.776  62.645  69.417  0.00  0.00    +0.000 NA
ENDBRANCH  13  14
ENDBRANCH   6   7
BRANCH   1  16
ATOM     16  C4  UNL     1       1.062  60.739  73.030  0.00  0.00    +0.000 C 
ATOM     17  O1  UNL     1       2.092  60.845  73.703  0.00  0.00    +0.000 OA
BRANCH  16  18
ATOM     18  C3  UNL     1       0.052  61.874  72.986  0.00  0.00    +0.000 C 
BRANCH  18  20
ATOM     19  C1  UNL     1      -2.300  60.981  73.126  0.00  0.00    +0.000 C 
ATOM     20  C2  UNL     1      -1.207  61.496  72.204  0.00  0.00    +0.000 C 
ENDBRANCH  18  20
ENDBRANCH  16  18
ENDBRANCH   1  16
TORSDOF 5
ENDMDL
MODEL 3
REMARK VINA RESULT:    -6.266      1.562      2.111
REMARK INTER + INTRA:          -9.400
REMARK INTER:                  -7.943
REMARK INTRA:                  -1.457
REMARK UNBOUND:                -1.302
REMARK  Name = ligantes_geracao2\Derivado_015.pdb
REMARK  8 active torsions:
REMARK  status: ('A' for Active; 'I' for Inactive)
REMARK    1  A    between atoms: C1_1  and  C2_2
REMARK    2  A    between atoms: C2_2  and  C3_3
REMARK    3  A    between atoms: C3_3  and  C4_4
REMARK    4  A    between atoms: C4_4  and  C5_6
REMARK    5  A    between atoms: C6_7  and  C7_8
REMARK    6  A    between atoms: C10_11  and  C11_12
REMARK    7  A    between atoms: C14_16  and  C15_17
REMARK    8  A    between atoms: C16_18  and  C17_19
REMARK                            x       y       z     vdW  Elec       q    Type
REMARK                         _______ _______ _______ _____ _____    ______ ____
ROOT
ATOM      1  C5  UNL     1       3.080  61.996  71.131  0.00  0.00    +0.000 C 
ATOM      2  C6  UNL     1       4.207  62.225  70.100  0.00  0.00    +0.000 C 
ATOM      3  C7  UNL     1       4.485  63.693  69.787  0.00  0.00    +0.000 C 
ATOM      4  C8  UNL     1       5.433  61.580  70.748  0.00  0.00    +0.000 C 
ATOM      5  C9  UNL     1       4.883  60.302  71.347  0.00  0.00    +0.000 C 
ATOM      6  C10 UNL     1       3.504  60.701  71.906  0.00  0.00    +0.000 C 
ENDROOT
BRANCH   6   7
ATOM      7  C11 UNL     1       2.587  59.499  72.039  0.00  0.00    +0.000 C 
ATOM      8  C12 UNL     1       2.536  58.597  70.974  0.00  0.00    +0.000 C 
ATOM      9  N1  UNL     1       1.750  57.501  70.922  0.00  0.00    +0.000 NA
ATOM     10  C13 UNL     1       0.975  57.255  71.994  0.00  0.00    +0.000 C 
ATOM     11  C14 UNL     1       0.930  58.062  73.122  0.00  0.00    +0.000 C 
ATOM     12  C15 UNL     1       0.031  57.693  74.267  0.00  0.00    +0.000 C 
ATOM     13  C16 UNL     1       1.749  59.208  73.135  0.00  0.00    +0.000 C 
BRANCH  13  14
ATOM     14  C17 UNL     1       1.715  60.064  74.289  0.00  0.00    +0.000 C 
ATOM     15  N2  UNL     1       1.692  60.748  75.226  0.00  0.00    +0.000 NA
ENDBRANCH  13  14
ENDBRANCH   6   7
BRANCH   1  16
ATOM     16  C4  UNL     1       1.628  62.025  70.639  0.00  0.00    +0.000 C 
ATOM     17  O1  UNL     1       1.365  61.662  69.489  0.00  0.00    +0.000 OA
BRANCH  16  18
ATOM     18  C3  UNL     1       0.512  62.377  71.609  0.00  0.00    +0.000 C 
BRANCH  18  20
ATOM     19  C1  UNL     1      -1.406  61.358  72.886  0.00  0.00    +0.000 C 
ATOM     20  C2  UNL     1      -0.618  61.346  71.587  0.00  0.00    +0.000 C 
ENDBRANCH  18  20
ENDBRANCH  16  18
ENDBRANCH   1  16
TORSDOF 5
ENDMDL
MODEL 4
REMARK VINA RESULT:    -6.241     18.886     20.872
REMARK INTER + INTRA:          -9.367
REMARK INTER:                  -7.821
REMARK INTRA:                  -1.546
REMARK UNBOUND:                -1.302
REMARK  Name = ligantes_geracao2\Derivado_015.pdb
REMARK  8 active torsions:
REMARK  status: ('A' for Active; 'I' for Inactive)
REMARK    1  A    between atoms: C1_1  and  C2_2
REMARK    2  A    between atoms: C2_2  and  C3_3
REMARK    3  A    between atoms: C3_3  and  C4_4
REMARK    4  A    between atoms: C4_4  and  C5_6
REMARK    5  A    between atoms: C6_7  and  C7_8
REMARK    6  A    between atoms: C10_11  and  C11_12
REMARK    7  A    between atoms: C14_16  and  C15_17
REMARK    8  A    between atoms: C16_18  and  C17_19
REMARK                            x       y       z     vdW  Elec       q    Type
REMARK                         _______ _______ _______ _____ _____    ______ ____
ROOT
ATOM      1  C5  UNL     1      14.827  47.423  60.925  0.00  0.00    +0.000 C 
ATOM      2  C6  UNL     1      14.633  46.952  62.383  0.00  0.00    +0.000 C 
ATOM      3  C7  UNL     1      14.505  45.440  62.544  0.00  0.00    +0.000 C 
ATOM      4  C8  UNL     1      15.886  47.457  63.101  0.00  0.00    +0.000 C 
ATOM      5  C9  UNL     1      16.086  48.844  62.526  0.00  0.00    +0.000 C 
ATOM      6  C10 UNL     1      15.735  48.697  61.033  0.00  0.00    +0.000 C 
ENDROOT
BRANCH   6   7
ATOM      7  C11 UNL     1      15.340  50.027  60.419  0.00  0.00    +0.000 C 
ATOM      8  C12 UNL     1      14.694  50.957  61.237  0.00  0.00    +0.000 C 
ATOM      9  N1  UNL     1      14.250  52.167  60.836  0.00  0.00    +0.000 NA
ATOM     10  C13 UNL     1      14.473  52.504  59.553  0.00  0.00    +0.000 C 
ATOM     11  C14 UNL     1      15.108  51.682  58.633  0.00  0.00    +0.000 C 
ATOM     12  C15 UNL     1      15.310  52.158  57.223  0.00  0.00    +0.000 C 
ATOM     13  C16 UNL     1      15.542  50.418  59.079  0.00  0.00    +0.000 C 
BRANCH  13  14
ATOM     14  C17 UNL     1      16.196  49.545  58.144  0.00  0.00    +0.000 C 
ATOM     15  N2  UNL     1      16.733  48.844  57.391  0.00  0.00    +0.000 NA
ENDBRANCH  13  14
ENDBRANCH   6   7
BRANCH   1  16
ATOM     16  C4  UNL     1      13.586  47.571  60.038  0.00  0.00    +0.000 C 
ATOM     17  O1  UNL     1      13.619  47.173  58.869  0.00  0.00    +0.000 OA
BRANCH  16  18
ATOM     18  C3  UNL     1      12.288  48.084  60.639  0.00  0.00    +0.000 C 
BRANCH  18  20
ATOM     19  C1  UNL     1      11.662  50.093  59.252  0.00  0.00    +0.000 C 
ATOM     20  C2  UNL     1      11.341  48.643  59.576  0.00  0.00    +0.000 C 
ENDBRANCH  18  20
ENDBRANCH  16  18
ENDBRANCH   1  16
TORSDOF 5
ENDMDL
MODEL 5
REMARK VINA RESULT:    -6.018      2.315      4.717
REMARK INTER + INTRA:          -9.079
REMARK INTER:                  -7.746
REMARK INTRA:                  -1.333
REMARK UNBOUND:                -1.302
REMARK  Name = ligantes_geracao2\Derivado_015.pdb
REMARK  8 active torsions:
REMARK  status: ('A' for Active; 'I' for Inactive)
REMARK    1  A    between atoms: C1_1  and  C2_2
REMARK    2  A    between atoms: C2_2  and  C3_3
REMARK    3  A    between atoms: C3_3  and  C4_4
REMARK    4  A    between atoms: C4_4  and  C5_6
REMARK    5  A    between atoms: C6_7  and  C7_8
REMARK    6  A    between atoms: C10_11  and  C11_12
REMARK    7  A    between atoms: C14_16  and  C15_17
REMARK    8  A    between atoms: C16_18  and  C17_19
REMARK                            x       y       z     vdW  Elec       q    Type
REMARK                         _______ _______ _______ _____ _____    ______ ____
ROOT
ATOM      1  C5  UNL     1       1.360  60.631  71.080  0.00  0.00    +0.000 C 
ATOM      2  C6  UNL     1       1.437  62.044  70.459  0.00  0.00    +0.000 C 
ATOM      3  C7  UNL     1       2.006  62.079  69.044  0.00  0.00    +0.000 C 
ATOM      4  C8  UNL     1      -0.016  62.523  70.458  0.00  0.00    +0.000 C 
ATOM      5  C9  UNL     1      -0.541  62.058  71.801  0.00  0.00    +0.000 C 
ATOM      6  C10 UNL     1       0.092  60.667  72.002  0.00  0.00    +0.000 C 
ENDROOT
BRANCH   6   7
ATOM      7  C11 UNL     1       0.147  60.286  73.470  0.00  0.00    +0.000 C 
ATOM      8  C12 UNL     1       0.289  61.313  74.405  0.00  0.00    +0.000 C 
ATOM      9  N1  UNL     1       0.388  61.138  75.740  0.00  0.00    +0.000 NA
ATOM     10  C13 UNL     1       0.317  59.875  76.197  0.00  0.00    +0.000 C 
ATOM     11  C14 UNL     1       0.170  58.762  75.382  0.00  0.00    +0.000 C 
ATOM     12  C15 UNL     1       0.099  57.393  75.997  0.00  0.00    +0.000 C 
ATOM     13  C16 UNL     1       0.090  58.978  73.992  0.00  0.00    +0.000 C 
BRANCH  13  14
ATOM     14  C17 UNL     1      -0.055  57.840  73.127  0.00  0.00    +0.000 C 
ATOM     15  N2  UNL     1      -0.177  56.916  72.435  0.00  0.00    +0.000 NA
ENDBRANCH  13  14
ENDBRANCH   6   7
BRANCH   1  16
ATOM     16  C4  UNL     1       2.625  60.049  71.721  0.00  0.00    +0.000 C 
ATOM     17  O1  UNL     1       2.877  58.847  71.595  0.00  0.00    +0.000 OA
BRANCH  16  18
ATOM     18  C3  UNL     1       3.624  60.978  72.393  0.00  0.00    +0.000 C 
BRANCH  18  20
ATOM     19  C1  UNL     1       5.387  61.128  70.599  0.00  0.00    +0.000 C 
ATOM     20  C2  UNL     1       5.066  60.651  72.006  0.00  0.00    +0.000 C 
ENDBRANCH  18  20
ENDBRANCH  16  18
ENDBRANCH   1  16
TORSDOF 5
ENDMDL
MODEL 6
REMARK VINA RESULT:    -5.990     19.022     21.216
REMARK INTER + INTRA:          -9.043
REMARK INTER:                  -7.704
REMARK INTRA:                  -1.338
REMARK UNBOUND:                -1.302
REMARK  Name = ligantes_geracao2\Derivado_015.pdb
REMARK  8 active torsions:
REMARK  status: ('A' for Active; 'I' for Inactive)
REMARK    1  A    between atoms: C1_1  and  C2_2
REMARK    2  A    between atoms: C2_2  and  C3_3
REMARK    3  A    between atoms: C3_3  and  C4_4
REMARK    4  A    between atoms: C4_4  and  C5_6
REMARK    5  A    between atoms: C6_7  and  C7_8
REMARK    6  A    between atoms: C10_11  and  C11_12
REMARK    7  A    between atoms: C14_16  and  C15_17
REMARK    8  A    between atoms: C16_18  and  C17_19
REMARK                            x       y       z     vdW  Elec       q    Type
REMARK                         _______ _______ _______ _____ _____    ______ ____
ROOT
ATOM      1  C5  UNL     1      15.478  50.708  59.566  0.00  0.00    +0.000 C 
ATOM      2  C6  UNL     1      15.116  51.731  60.667  0.00  0.00    +0.000 C 
ATOM      3  C7  UNL     1      16.283  52.123  61.569  0.00  0.00    +0.000 C 
ATOM      4  C8  UNL     1      14.617  52.948  59.886  0.00  0.00    +0.000 C 
ATOM      5  C9  UNL     1      13.775  52.338  58.784  0.00  0.00    +0.000 C 
ATOM      6  C10 UNL     1      14.554  51.080  58.356  0.00  0.00    +0.000 C 
ENDROOT
BRANCH   6   7
ATOM      7  C11 UNL     1      13.647  50.063  57.687  0.00  0.00    +0.000 C 
ATOM      8  C12 UNL     1      12.324  49.979  58.129  0.00  0.00    +0.000 C 
ATOM      9  N1  UNL     1      11.404  49.108  57.664  0.00  0.00    +0.000 NA
ATOM     10  C13 UNL     1      11.795  48.276  56.681  0.00  0.00    +0.000 C 
ATOM     11  C14 UNL     1      13.074  48.254  56.144  0.00  0.00    +0.000 C 
ATOM     12  C15 UNL     1      13.404  47.285  55.045  0.00  0.00    +0.000 C 
ATOM     13  C16 UNL     1      14.015  49.163  56.666  0.00  0.00    +0.000 C 
BRANCH  13  14
ATOM     14  C17 UNL     1      15.348  49.156  56.131  0.00  0.00    +0.000 C 
ATOM     15  N2  UNL     1      16.422  49.155  55.691  0.00  0.00    +0.000 NA
ENDBRANCH  13  14
ENDBRANCH   6   7
BRANCH   1  16
ATOM     16  C4  UNL     1      15.514  49.222  59.939  0.00  0.00    +0.000 C 
ATOM     17  O1  UNL     1      16.315  48.470  59.377  0.00  0.00    +0.000 OA
BRANCH  16  18
ATOM     18  C3  UNL     1      14.655  48.713  61.084  0.00  0.00    +0.000 C 
BRANCH  18  20
ATOM     19  C1  UNL     1      16.365  48.635  62.933  0.00  0.00    +0.000 C 
ATOM     20  C2  UNL     1      15.442  47.819  62.043  0.00  0.00    +0.000 C 
ENDBRANCH  18  20
ENDBRANCH  16  18
ENDBRANCH   1  16
TORSDOF 5
ENDMDL
MODEL 7
REMARK VINA RESULT:    -5.891      2.015      4.383
REMARK INTER + INTRA:          -8.916
REMARK INTER:                  -7.960
REMARK INTRA:                  -0.956
REMARK UNBOUND:                -1.302
REMARK  Name = ligantes_geracao2\Derivado_015.pdb
REMARK  8 active torsions:
REMARK  status: ('A' for Active; 'I' for Inactive)
REMARK    1  A    between atoms: C1_1  and  C2_2
REMARK    2  A    between atoms: C2_2  and  C3_3
REMARK    3  A    between atoms: C3_3  and  C4_4
REMARK    4  A    between atoms: C4_4  and  C5_6
REMARK    5  A    between atoms: C6_7  and  C7_8
REMARK    6  A    between atoms: C10_11  and  C11_12
REMARK    7  A    between atoms: C14_16  and  C15_17
REMARK    8  A    between atoms: C16_18  and  C17_19
REMARK                            x       y       z     vdW  Elec       q    Type
REMARK                         _______ _______ _______ _____ _____    ______ ____
ROOT
ATOM      1  C5  UNL     1       1.864  61.330  71.212  0.00  0.00    +0.000 C 
ATOM      2  C6  UNL     1       1.382  62.798  71.206  0.00  0.00    +0.000 C 
ATOM      3  C7  UNL     1       2.122  63.699  70.222  0.00  0.00    +0.000 C 
ATOM      4  C8  UNL     1      -0.096  62.697  70.823  0.00  0.00    +0.000 C 
ATOM      5  C9  UNL     1      -0.582  61.497  71.610  0.00  0.00    +0.000 C 
ATOM      6  C10 UNL     1       0.581  60.489  71.533  0.00  0.00    +0.000 C 
ENDROOT
BRANCH   6   7
ATOM      7  C11 UNL     1       0.531  59.492  72.677  0.00  0.00    +0.000 C 
ATOM      8  C12 UNL     1      -0.119  59.879  73.851  0.00  0.00    +0.000 C 
ATOM      9  N1  UNL     1      -0.221  59.125  74.966  0.00  0.00    +0.000 NA
ATOM     10  C13 UNL     1       0.329  57.898  74.925  0.00  0.00    +0.000 C 
ATOM     11  C14 UNL     1       0.998  57.383  73.824  0.00  0.00    +0.000 C 
ATOM     12  C15 UNL     1       1.572  55.997  73.883  0.00  0.00    +0.000 C 
ATOM     13  C16 UNL     1       1.103  58.204  72.683  0.00  0.00    +0.000 C 
BRANCH  13  14
ATOM     14  C17 UNL     1       1.797  57.696  71.533  0.00  0.00    +0.000 C 
ATOM     15  N2  UNL     1       2.361  57.295  70.601  0.00  0.00    +0.000 NA
ENDBRANCH  13  14
ENDBRANCH   6   7
BRANCH   1  16
ATOM     16  C4  UNL     1       3.108  60.978  72.036  0.00  0.00    +0.000 C 
ATOM     17  O1  UNL     1       3.094  61.133  73.260  0.00  0.00    +0.000 OA
BRANCH  16  18
ATOM     18  C3  UNL     1       4.298  60.321  71.357  0.00  0.00    +0.000 C 
BRANCH  18  20
ATOM     19  C1  UNL     1       3.942  60.051  68.877  0.00  0.00    +0.000 C 
ATOM     20  C2  UNL     1       4.566  60.904  69.970  0.00  0.00    +0.000 C 
ENDBRANCH  18  20
ENDBRANCH  16  18
ENDBRANCH   1  16
TORSDOF 5
ENDMDL
MODEL 8
REMARK VINA RESULT:    -5.764      2.636      3.891
REMARK INTER + INTRA:          -8.751
REMARK INTER:                  -7.623
REMARK INTRA:                  -1.128
REMARK UNBOUND:                -1.302
REMARK  Name = ligantes_geracao2\Derivado_015.pdb
REMARK  8 active torsions:
REMARK  status: ('A' for Active; 'I' for Inactive)
REMARK    1  A    between atoms: C1_1  and  C2_2
REMARK    2  A    between atoms: C2_2  and  C3_3
REMARK    3  A    between atoms: C3_3  and  C4_4
REMARK    4  A    between atoms: C4_4  and  C5_6
REMARK    5  A    between atoms: C6_7  and  C7_8
REMARK    6  A    between atoms: C10_11  and  C11_12
REMARK    7  A    between atoms: C14_16  and  C15_17
REMARK    8  A    between atoms: C16_18  and  C17_19
REMARK                            x       y       z     vdW  Elec       q    Type
REMARK                         _______ _______ _______ _____ _____    ______ ____
ROOT
ATOM      1  C5  UNL     1       2.568  60.115  71.596  0.00  0.00    +0.000 C 
ATOM      2  C6  UNL     1       2.600  60.283  70.060  0.00  0.00    +0.000 C 
ATOM      3  C7  UNL     1       3.123  61.636  69.586  0.00  0.00    +0.000 C 
ATOM      4  C8  UNL     1       3.528  59.162  69.589  0.00  0.00    +0.000 C 
ATOM      5  C9  UNL     1       3.121  57.983  70.449  0.00  0.00    +0.000 C 
ATOM      6  C10 UNL     1       2.854  58.594  71.838  0.00  0.00    +0.000 C 
ENDROOT
BRANCH   6   7
ATOM      7  C11 UNL     1       1.932  57.717  72.665  0.00  0.00    +0.000 C 
ATOM      8  C12 UNL     1       0.739  57.290  72.078  0.00  0.00    +0.000 C 
ATOM      9  N1  UNL     1      -0.201  56.538  72.688  0.00  0.00    +0.000 NA
ATOM     10  C13 UNL     1       0.051  56.154  73.953  0.00  0.00    +0.000 C 
ATOM     11  C14 UNL     1       1.197  56.500  74.655  0.00  0.00    +0.000 C 
ATOM     12  C15 UNL     1       1.382  56.014  76.065  0.00  0.00    +0.000 C 
ATOM     13  C16 UNL     1       2.148  57.302  73.995  0.00  0.00    +0.000 C 
BRANCH  13  14
ATOM     14  C17 UNL     1       3.340  57.679  74.703  0.00  0.00    +0.000 C 
ATOM     15  N2  UNL     1       4.297  57.987  75.283  0.00  0.00    +0.000 NA
ENDBRANCH  13  14
ENDBRANCH   6   7
BRANCH   1  16
ATOM     16  C4  UNL     1       1.374  60.693  72.365  0.00  0.00    +0.000 C 
ATOM     17  O1  UNL     1       1.550  61.198  73.477  0.00  0.00    +0.000 OA
BRANCH  16  18
ATOM     18  C3  UNL     1       0.009  60.757  71.698  0.00  0.00    +0.000 C 
BRANCH  18  20
ATOM     19  C1  UNL     1      -0.098  62.973  70.506  0.00  0.00    +0.000 C 
ATOM     20  C2  UNL     1      -0.572  62.171  71.706  0.00  0.00    +0.000 C 
ENDBRANCH  18  20
ENDBRANCH  16  18
ENDBRANCH   1  16
TORSDOF 5
ENDMDL
MODEL 9
REMARK VINA RESULT:    -5.746      2.477      4.493
REMARK INTER + INTRA:          -8.728
REMARK INTER:                  -7.912
REMARK INTRA:                  -0.816
REMARK UNBOUND:                -1.302
REMARK  Name = ligantes_geracao2\Derivado_015.pdb
REMARK  8 active torsions:
REMARK  status: ('A' for Active; 'I' for Inactive)
REMARK    1  A    between atoms: C1_1  and  C2_2
REMARK    2  A    between atoms: C2_2  and  C3_3
REMARK    3  A    between atoms: C3_3  and  C4_4
REMARK    4  A    between atoms: C4_4  and  C5_6
REMARK    5  A    between atoms: C6_7  and  C7_8
REMARK    6  A    between atoms: C10_11  and  C11_12
REMARK    7  A    between atoms: C14_16  and  C15_17
REMARK    8  A    between atoms: C16_18  and  C17_19
REMARK                            x       y       z     vdW  Elec       q    Type
REMARK                         _______ _______ _______ _____ _____    ______ ____
ROOT
ATOM      1  C5  UNL     1       1.790  59.730  71.153  0.00  0.00    +0.000 C 
ATOM      2  C6  UNL     1       1.281  61.179  71.330  0.00  0.00    +0.000 C 
ATOM      3  C7  UNL     1       1.459  62.063  70.099  0.00  0.00    +0.000 C 
ATOM      4  C8  UNL     1      -0.205  61.008  71.650  0.00  0.00    +0.000 C 
ATOM      5  C9  UNL     1      -0.228  59.826  72.598  0.00  0.00    +0.000 C 
ATOM      6  C10 UNL     1       0.829  58.858  72.032  0.00  0.00    +0.000 C 
ENDROOT
BRANCH   6   7
ATOM      7  C11 UNL     1       1.345  57.910  73.099  0.00  0.00    +0.000 C 
ATOM      8  C12 UNL     1       1.423  56.552  72.781  0.00  0.00    +0.000 C 
ATOM      9  N1  UNL     1       1.826  55.580  73.626  0.00  0.00    +0.000 NA
ATOM     10  C13 UNL     1       2.202  55.961  74.860  0.00  0.00    +0.000 C 
ATOM     11  C14 UNL     1       2.180  57.274  75.308  0.00  0.00    +0.000 C 
ATOM     12  C15 UNL     1       2.625  57.592  76.707  0.00  0.00    +0.000 C 
ATOM     13  C16 UNL     1       1.736  58.262  74.407  0.00  0.00    +0.000 C 
BRANCH  13  14
ATOM     14  C17 UNL     1       1.698  59.628  74.848  0.00  0.00    +0.000 C 
ATOM     15  N2  UNL     1       1.658  60.731  75.208  0.00  0.00    +0.000 NA
ENDBRANCH  13  14
ENDBRANCH   6   7
BRANCH   1  16
ATOM     16  C4  UNL     1       3.287  59.458  71.342  0.00  0.00    +0.000 C 
ATOM     17  O1  UNL     1       3.835  58.572  70.681  0.00  0.00    +0.000 OA
BRANCH  16  18
ATOM     18  C3  UNL     1       4.109  60.365  72.243  0.00  0.00    +0.000 C 
BRANCH  18  20
ATOM     19  C1  UNL     1       5.055  61.923  70.503  0.00  0.00    +0.000 C 
ATOM     20  C2  UNL     1       5.376  60.871  71.552  0.00  0.00    +0.000 C 
ENDBRANCH  18  20
ENDBRANCH  16  18
ENDBRANCH   1  16
TORSDOF 5
ENDMDL
