MODEL 1
REMARK VINA RESULT:    -5.522      0.000      0.000
REMARK INTER + INTRA:          -8.678
REMARK INTER:                  -7.460
REMARK INTRA:                  -1.218
REMARK UNBOUND:                -1.218
REMARK  Name = ligantes_geracao2\Derivado_010.pdb
REMARK  8 active torsions:
REMARK  status: ('A' for Active; 'I' for Inactive)
REMARK    1  A    between atoms: C1_1  and  C2_2
REMARK    2  A    between atoms: C2_2  and  C3_3
REMARK    3  A    between atoms: C3_3  and  C4_4
REMARK    4  A    between atoms: C4_4  and  C5_6
REMARK    5  A    between atoms: C6_7  and  C7_8
REMARK    6  A    between atoms: C7_8  and  C8_9
REMARK    7  A    between atoms: C11_12  and  C12_13
REMARK    8  A    between atoms: C16_18  and  C17_19
REMARK                            x       y       z     vdW  Elec       q    Type
REMARK                         _______ _______ _______ _____ _____    ______ ____
ROOT
ATOM      1  C5  UNL     1      21.708  19.260  19.588  0.00  0.00    +0.000 C 
ATOM      2  C6  UNL     1      21.888  19.099  21.122  0.00  0.00    +0.000 C 
ATOM      3  C9  UNL     1      20.534  19.485  21.738  0.00  0.00    +0.000 C 
ATOM      4  C10 UNL     1      19.884  20.388  20.699  0.00  0.00    +0.000 C 
ATOM      5  C11 UNL     1      20.232  19.677  19.386  0.00  0.00    +0.000 C 
ENDROOT
BRANCH   5   6
ATOM      6  C12 UNL     1      19.899  20.377  18.085  0.00  0.00    +0.000 C 
ATOM      7  C13 UNL     1      19.799  21.763  17.995  0.00  0.00    +0.000 C 
ATOM      8  N1  UNL     1      19.493  22.438  16.862  0.00  0.00    +0.000 NA
ATOM      9  C14 UNL     1      19.284  21.718  15.745  0.00  0.00    +0.000 C 
ATOM     10  C15 UNL     1      19.368  20.342  15.707  0.00  0.00    +0.000 C 
ATOM     11  C16 UNL     1      19.678  19.664  16.889  0.00  0.00    +0.000 C 
BRANCH  11  12
ATOM     12  C17 UNL     1      19.773  18.234  16.838  0.00  0.00    +0.000 C 
ATOM     13  N2  UNL     1      19.832  17.077  16.771  0.00  0.00    +0.000 NA
ENDBRANCH  11  12
ENDBRANCH   5   6
BRANCH   1  14
ATOM     14  C4  UNL     1      22.686  20.311  19.059  0.00  0.00    +0.000 C 
ATOM     15  O1  UNL     1      22.769  21.425  19.575  0.00  0.00    +0.000 OA
BRANCH  14  16
ATOM     16  C3  UNL     1      23.564  19.889  17.890  0.00  0.00    +0.000 C 
BRANCH  16  18
ATOM     17  C1  UNL     1      24.733  17.644  18.062  0.00  0.00    +0.000 C 
ATOM     18  C2  UNL     1      23.500  18.396  17.580  0.00  0.00    +0.000 C 
ENDBRANCH  16  18
ENDBRANCH  14  16
ENDBRANCH   1  14
BRANCH   2  19
ATOM     19  C7  UNL     1      22.314  17.690  21.553  0.00  0.00    +0.000 C 
ATOM     20  C8  UNL     1      21.137  16.807  21.946  0.00  0.00    +0.000 C 
ENDBRANCH   2  19
TORSDOF 6
ENDMDL
MODEL 2
REMARK VINA RESULT:    -5.300     30.137     32.049
REMARK INTER + INTRA:          -8.377
REMARK INTER:                  -7.027
REMARK INTRA:                  -1.350
REMARK UNBOUND:                -1.218
REMARK  Name = ligantes_geracao2\Derivado_010.pdb
REMARK  8 active torsions:
REMARK  status: ('A' for Active; 'I' for Inactive)
REMARK    1  A    between atoms: C1_1  and  C2_2
REMARK    2  A    between atoms: C2_2  and  C3_3
REMARK    3  A    between atoms: C3_3  and  C4_4
REMARK    4  A    between atoms: C4_4  and  C5_6
REMARK    5  A    between atoms: C6_7  and  C7_8
REMARK    6  A    between atoms: C7_8  and  C8_9
REMARK    7  A    between atoms: C11_12  and  C12_13
REMARK    8  A    between atoms: C16_18  and  C17_19
REMARK                            x       y       z     vdW  Elec       q    Type
REMARK                         _______ _______ _______ _____ _____    ______ ____
ROOT
ATOM      1  C5  UNL     1      18.739  -7.170   1.485  0.00  0.00    +0.000 C 
ATOM      2  C6  UNL     1      20.208  -6.712   1.693  0.00  0.00    +0.000 C 
ATOM      3  C9  UNL     1      20.117  -5.302   2.300  0.00  0.00    +0.000 C 
ATOM      4  C10 UNL     1      18.755  -4.784   1.862  0.00  0.00    +0.000 C 
ATOM      5  C11 UNL     1      17.864  -6.020   2.038  0.00  0.00    +0.000 C 
ENDROOT
BRANCH   5   6
ATOM      6  C12 UNL     1      16.438  -5.951   1.532  0.00  0.00    +0.000 C 
ATOM      7  C13 UNL     1      16.027  -4.997   0.606  0.00  0.00    +0.000 C 
ATOM      8  N1  UNL     1      14.765  -4.883   0.130  0.00  0.00    +0.000 NA
ATOM      9  C14 UNL     1      13.850  -5.762   0.575  0.00  0.00    +0.000 C 
ATOM     10  C15 UNL     1      14.140  -6.759   1.482  0.00  0.00    +0.000 C 
ATOM     11  C16 UNL     1      15.448  -6.855   1.967  0.00  0.00    +0.000 C 
BRANCH  11  12
ATOM     12  C17 UNL     1      15.743  -7.901   2.903  0.00  0.00    +0.000 C 
ATOM     13  N2  UNL     1      16.000  -8.760   3.639  0.00  0.00    +0.000 NA
ENDBRANCH  11  12
ENDBRANCH   5   6
BRANCH   1  14
ATOM     14  C4  UNL     1      18.483  -7.431  -0.001  0.00  0.00    +0.000 C 
ATOM     15  O1  UNL     1      18.843  -6.628  -0.862  0.00  0.00    +0.000 OA
BRANCH  14  16
ATOM     16  C3  UNL     1      17.796  -8.742  -0.349  0.00  0.00    +0.000 C 
BRANCH  16  18
ATOM     17  C1  UNL     1      15.396  -9.474  -0.723  0.00  0.00    +0.000 C 
ATOM     18  C2  UNL     1      16.531  -8.571  -1.186  0.00  0.00    +0.000 C 
ENDBRANCH  16  18
ENDBRANCH  14  16
ENDBRANCH   1  14
BRANCH   2  19
ATOM     19  C7  UNL     1      21.031  -7.649   2.587  0.00  0.00    +0.000 C 
ATOM     20  C8  UNL     1      20.598  -7.613   4.045  0.00  0.00    +0.000 C 
ENDBRANCH   2  19
TORSDOF 6
ENDMDL
MODEL 3
REMARK VINA RESULT:    -5.272     26.958     28.841
REMARK INTER + INTRA:          -8.339
REMARK INTER:                  -6.900
REMARK INTRA:                  -1.439
REMARK UNBOUND:                -1.218
REMARK  Name = ligantes_geracao2\Derivado_010.pdb
REMARK  8 active torsions:
REMARK  status: ('A' for Active; 'I' for Inactive)
REMARK    1  A    between atoms: C1_1  and  C2_2
REMARK    2  A    between atoms: C2_2  and  C3_3
REMARK    3  A    between atoms: C3_3  and  C4_4
REMARK    4  A    between atoms: C4_4  and  C5_6
REMARK    5  A    between atoms: C6_7  and  C7_8
REMARK    6  A    between atoms: C7_8  and  C8_9
REMARK    7  A    between atoms: C11_12  and  C12_13
REMARK    8  A    between atoms: C16_18  and  C17_19
REMARK                            x       y       z     vdW  Elec       q    Type
REMARK                         _______ _______ _______ _____ _____    ______ ____
ROOT
ATOM      1  C5  UNL     1       1.187  -0.207  20.679  0.00  0.00    +0.000 C 
ATOM      2  C6  UNL     1       1.731  -0.348  22.126  0.00  0.00    +0.000 C 
ATOM      3  C9  UNL     1       2.362  -1.749  22.192  0.00  0.00    +0.000 C 
ATOM      4  C10 UNL     1       1.660  -2.538  21.097  0.00  0.00    +0.000 C 
ATOM      5  C11 UNL     1       1.584  -1.516  19.956  0.00  0.00    +0.000 C 
ENDROOT
BRANCH   5   6
ATOM      6  C12 UNL     1       0.781  -1.879  18.724  0.00  0.00    +0.000 C 
ATOM      7  C13 UNL     1      -0.169  -2.897  18.733  0.00  0.00    +0.000 C 
ATOM      8  N1  UNL     1      -0.904  -3.270  17.659  0.00  0.00    +0.000 NA
ATOM      9  C14 UNL     1      -0.710  -2.601  16.509  0.00  0.00    +0.000 C 
ATOM     10  C15 UNL     1       0.193  -1.567  16.380  0.00  0.00    +0.000 C 
ATOM     11  C16 UNL     1       0.947  -1.202  17.500  0.00  0.00    +0.000 C 
BRANCH  11  12
ATOM     12  C17 UNL     1       1.876  -0.118  17.359  0.00  0.00    +0.000 C 
ATOM     13  N2  UNL     1       2.614   0.773  17.268  0.00  0.00    +0.000 NA
ENDBRANCH  11  12
ENDBRANCH   5   6
BRANCH   1  14
ATOM     14  C4  UNL     1      -0.329   0.001  20.713  0.00  0.00    +0.000 C 
ATOM     15  O1  UNL     1      -1.060  -0.733  21.377  0.00  0.00    +0.000 OA
BRANCH  14  16
ATOM     16  C3  UNL     1      -0.869   1.176  19.912  0.00  0.00    +0.000 C 
BRANCH  16  18
ATOM     17  C1  UNL     1      -0.048   2.993  18.344  0.00  0.00    +0.000 C 
ATOM     18  C2  UNL     1       0.157   2.281  19.674  0.00  0.00    +0.000 C 
ENDBRANCH  16  18
ENDBRANCH  14  16
ENDBRANCH   1  14
BRANCH   2  19
ATOM     19  C7  UNL     1       2.741   0.736  22.519  0.00  0.00    +0.000 C 
ATOM     20  C8  UNL     1       3.338   1.457  21.319  0.00  0.00    +0.000 C 
ENDBRANCH   2  19
TORSDOF 6
ENDMDL
MODEL 4
REMARK VINA RESULT:    -5.260     29.937     31.469
REMARK INTER + INTRA:          -8.323
REMARK INTER:                  -7.088
REMARK INTRA:                  -1.236
REMARK UNBOUND:                -1.218
REMARK  Name = ligantes_geracao2\Derivado_010.pdb
REMARK  8 active torsions:
REMARK  status: ('A' for Active; 'I' for Inactive)
REMARK    1  A    between atoms: C1_1  and  C2_2
REMARK    2  A    between atoms: C2_2  and  C3_3
REMARK    3  A    between atoms: C3_3  and  C4_4
REMARK    4  A    between atoms: C4_4  and  C5_6
REMARK    5  A    between atoms: C6_7  and  C7_8
REMARK    6  A    between atoms: C7_8  and  C8_9
REMARK    7  A    between atoms: C11_12  and  C12_13
REMARK    8  A    between atoms: C16_18  and  C17_19
REMARK                            x       y       z     vdW  Elec       q    Type
REMARK                         _______ _______ _______ _____ _____    ______ ____
ROOT
ATOM      1  C5  UNL     1      18.005  -7.212   2.007  0.00  0.00    +0.000 C 
ATOM      2  C6  UNL     1      19.300  -7.907   2.509  0.00  0.00    +0.000 C 
ATOM      3  C9  UNL     1      20.355  -6.792   2.605  0.00  0.00    +0.000 C 
ATOM      4  C10 UNL     1      19.871  -5.722   1.636  0.00  0.00    +0.000 C 
ATOM      5  C11 UNL     1      18.359  -5.709   1.893  0.00  0.00    +0.000 C 
ENDROOT
BRANCH   5   6
ATOM      6  C12 UNL     1      17.486  -4.876   0.978  0.00  0.00    +0.000 C 
ATOM      7  C13 UNL     1      17.885  -4.528  -0.310  0.00  0.00    +0.000 C 
ATOM      8  N1  UNL     1      17.151  -3.777  -1.164  0.00  0.00    +0.000 NA
ATOM      9  C14 UNL     1      15.948  -3.350  -0.741  0.00  0.00    +0.000 C 
ATOM     10  C15 UNL     1      15.439  -3.641   0.507  0.00  0.00    +0.000 C 
ATOM     11  C16 UNL     1      16.217  -4.412   1.376  0.00  0.00    +0.000 C 
BRANCH  11  12
ATOM     12  C17 UNL     1      15.675  -4.719   2.669  0.00  0.00    +0.000 C 
ATOM     13  N2  UNL     1      15.224  -4.991   3.703  0.00  0.00    +0.000 NA
ENDBRANCH  11  12
ENDBRANCH   5   6
BRANCH   1  14
ATOM     14  C4  UNL     1      17.582  -7.811   0.665  0.00  0.00    +0.000 C 
ATOM     15  O1  UNL     1      18.396  -7.993  -0.240  0.00  0.00    +0.000 OA
BRANCH  14  16
ATOM     16  C3  UNL     1      16.116  -8.197   0.530  0.00  0.00    +0.000 C 
BRANCH  16  18
ATOM     17  C1  UNL     1      15.388  -9.764   2.387  0.00  0.00    +0.000 C 
ATOM     18  C2  UNL     1      15.390  -8.334   1.865  0.00  0.00    +0.000 C 
ENDBRANCH  16  18
ENDBRANCH  14  16
ENDBRANCH   1  14
BRANCH   2  19
ATOM     19  C7  UNL     1      19.136  -8.634   3.849  0.00  0.00    +0.000 C 
ATOM     20  C8  UNL     1      20.463  -8.918   4.538  0.00  0.00    +0.000 C 
ENDBRANCH   2  19
TORSDOF 6
ENDMDL
MODEL 5
REMARK VINA RESULT:    -5.258     27.763     29.692
REMARK INTER + INTRA:          -8.320
REMARK INTER:                  -7.168
REMARK INTRA:                  -1.152
REMARK UNBOUND:                -1.218
REMARK  Name = ligantes_geracao2\Derivado_010.pdb
REMARK  8 active torsions:
REMARK  status: ('A' for Active; 'I' for Inactive)
REMARK    1  A    between atoms: C1_1  and  C2_2
REMARK    2  A    between atoms: C2_2  and  C3_3
REMARK    3  A    between atoms: C3_3  and  C4_4
REMARK    4  A    between atoms: C4_4  and  C5_6
REMARK    5  A    between atoms: C6_7  and  C7_8
REMARK    6  A    between atoms: C7_8  and  C8_9
REMARK    7  A    between atoms: C11_12  and  C12_13
REMARK    8  A    between atoms: C16_18  and  C17_19
REMARK                            x       y       z     vdW  Elec       q    Type
REMARK                         _______ _______ _______ _____ _____    ______ ____
ROOT
ATOM      1  C5  UNL     1       1.360  -0.606  19.726  0.00  0.00    +0.000 C 
ATOM      2  C6  UNL     1       1.651  -0.026  21.136  0.00  0.00    +0.000 C 
ATOM      3  C9  UNL     1       2.268  -1.184  21.938  0.00  0.00    +0.000 C 
ATOM      4  C10 UNL     1       1.765  -2.442  21.243  0.00  0.00    +0.000 C 
ATOM      5  C11 UNL     1       1.879  -2.063  19.761  0.00  0.00    +0.000 C 
ENDROOT
BRANCH   5   6
ATOM      6  C12 UNL     1       1.299  -3.013  18.734  0.00  0.00    +0.000 C 
ATOM      7  C13 UNL     1       0.374  -3.997  19.075  0.00  0.00    +0.000 C 
ATOM      8  N1  UNL     1      -0.166  -4.878  18.201  0.00  0.00    +0.000 NA
ATOM      9  C14 UNL     1       0.209  -4.787  16.913  0.00  0.00    +0.000 C 
ATOM     10  C15 UNL     1       1.107  -3.847  16.453  0.00  0.00    +0.000 C 
ATOM     11  C16 UNL     1       1.658  -2.951  17.373  0.00  0.00    +0.000 C 
BRANCH  11  12
ATOM     12  C17 UNL     1       2.584  -1.970  16.883  0.00  0.00    +0.000 C 
ATOM     13  N2  UNL     1       3.349  -1.181  16.513  0.00  0.00    +0.000 NA
ENDBRANCH  11  12
ENDBRANCH   5   6
BRANCH   1  14
ATOM     14  C4  UNL     1      -0.141  -0.531  19.434  0.00  0.00    +0.000 C 
ATOM     15  O1  UNL     1      -0.568  -0.520  18.280  0.00  0.00    +0.000 OA
BRANCH  14  16
ATOM     16  C3  UNL     1      -1.063  -0.507  20.644  0.00  0.00    +0.000 C 
BRANCH  16  18
ATOM     17  C1  UNL     1      -1.878  -2.659  21.711  0.00  0.00    +0.000 C 
ATOM     18  C2  UNL     1      -2.119  -1.610  20.635  0.00  0.00    +0.000 C 
ENDBRANCH  16  18
ENDBRANCH  14  16
ENDBRANCH   1  14
BRANCH   2  19
ATOM     19  C7  UNL     1       2.576   1.198  21.127  0.00  0.00    +0.000 C 
ATOM     20  C8  UNL     1       3.710   1.094  22.137  0.00  0.00    +0.000 C 
ENDBRANCH   2  19
TORSDOF 6
ENDMDL
MODEL 6
REMARK VINA RESULT:    -5.226      2.514      5.048
REMARK INTER + INTRA:          -8.278
REMARK INTER:                  -7.343
REMARK INTRA:                  -0.934
REMARK UNBOUND:                -1.218
REMARK  Name = ligantes_geracao2\Derivado_010.pdb
REMARK  8 active torsions:
REMARK  status: ('A' for Active; 'I' for Inactive)
REMARK    1  A    between atoms: C1_1  and  C2_2
REMARK    2  A    between atoms: C2_2  and  C3_3
REMARK    3  A    between atoms: C3_3  and  C4_4
REMARK    4  A    between atoms: C4_4  and  C5_6
REMARK    5  A    between atoms: C6_7  and  C7_8
REMARK    6  A    between atoms: C7_8  and  C8_9
REMARK    7  A    between atoms: C11_12  and  C12_13
REMARK    8  A    between atoms: C16_18  and  C17_19
REMARK                            x       y       z     vdW  Elec       q    Type
REMARK                         _______ _______ _______ _____ _____    ______ ____
ROOT
ATOM      1  C5  UNL     1      21.895  20.436  17.823  0.00  0.00    +0.000 C 
ATOM      2  C6  UNL     1      21.875  21.823  17.124  0.00  0.00    +0.000 C 
ATOM      3  C9  UNL     1      22.021  22.855  18.255  0.00  0.00    +0.000 C 
ATOM      4  C10 UNL     1      21.517  22.135  19.498  0.00  0.00    +0.000 C 
ATOM      5  C11 UNL     1      22.112  20.732  19.326  0.00  0.00    +0.000 C 
ENDROOT
BRANCH   5   6
ATOM      6  C12 UNL     1      21.685  19.651  20.297  0.00  0.00    +0.000 C 
ATOM      7  C13 UNL     1      20.480  19.715  20.992  0.00  0.00    +0.000 C 
ATOM      8  N1  UNL     1      20.055  18.784  21.878  0.00  0.00    +0.000 NA
ATOM      9  C14 UNL     1      20.849  17.719  22.091  0.00  0.00    +0.000 C 
ATOM     10  C15 UNL     1      22.058  17.539  21.454  0.00  0.00    +0.000 C 
ATOM     11  C16 UNL     1      22.481  18.516  20.547  0.00  0.00    +0.000 C 
BRANCH  11  12
ATOM     12  C17 UNL     1      23.736  18.315  19.881  0.00  0.00    +0.000 C 
ATOM     13  N2  UNL     1      24.751  18.125  19.353  0.00  0.00    +0.000 NA
ENDBRANCH  11  12
ENDBRANCH   5   6
BRANCH   1  14
ATOM     14  C4  UNL     1      20.578  19.704  17.559  0.00  0.00    +0.000 C 
ATOM     15  O1  UNL     1      19.499  20.294  17.601  0.00  0.00    +0.000 OA
BRANCH  14  16
ATOM     16  C3  UNL     1      20.683  18.226  17.214  0.00  0.00    +0.000 C 
BRANCH  16  18
ATOM     17  C1  UNL     1      19.056  16.373  16.620  0.00  0.00    +0.000 C 
ATOM     18  C2  UNL     1      19.607  17.742  16.246  0.00  0.00    +0.000 C 
ENDBRANCH  16  18
ENDBRANCH  14  16
ENDBRANCH   1  14
BRANCH   2  19
ATOM     19  C7  UNL     1      22.969  22.001  16.065  0.00  0.00    +0.000 C 
ATOM     20  C8  UNL     1      23.756  20.725  15.801  0.00  0.00    +0.000 C 
ENDBRANCH   2  19
TORSDOF 6
ENDMDL
MODEL 7
REMARK VINA RESULT:    -5.200     27.595     29.519
REMARK INTER + INTRA:          -8.242
REMARK INTER:                  -6.891
REMARK INTRA:                  -1.351
REMARK UNBOUND:                -1.218
REMARK  Name = ligantes_geracao2\Derivado_010.pdb
REMARK  8 active torsions:
REMARK  status: ('A' for Active; 'I' for Inactive)
REMARK    1  A    between atoms: C1_1  and  C2_2
REMARK    2  A    between atoms: C2_2  and  C3_3
REMARK    3  A    between atoms: C3_3  and  C4_4
REMARK    4  A    between atoms: C4_4  and  C5_6
REMARK    5  A    between atoms: C6_7  and  C7_8
REMARK    6  A    between atoms: C7_8  and  C8_9
REMARK    7  A    between atoms: C11_12  and  C12_13
REMARK    8  A    between atoms: C16_18  and  C17_19
REMARK                            x       y       z     vdW  Elec       q    Type
REMARK                         _______ _______ _______ _____ _____    ______ ____
ROOT
ATOM      1  C5  UNL     1       1.357  -0.964  19.514  0.00  0.00    +0.000 C 
ATOM      2  C6  UNL     1       1.573  -0.280  20.891  0.00  0.00    +0.000 C 
ATOM      3  C9  UNL     1       2.280  -1.329  21.765  0.00  0.00    +0.000 C 
ATOM      4  C10 UNL     1       1.905  -2.665  21.139  0.00  0.00    +0.000 C 
ATOM      5  C11 UNL     1       2.007  -2.363  19.639  0.00  0.00    +0.000 C 
ENDROOT
BRANCH   5   6
ATOM      6  C12 UNL     1       1.531  -3.419  18.663  0.00  0.00    +0.000 C 
ATOM      7  C13 UNL     1       0.570  -4.365  19.008  0.00  0.00    +0.000 C 
ATOM      8  N1  UNL     1       0.118  -5.337  18.180  0.00  0.00    +0.000 NA
ATOM      9  C14 UNL     1       0.627  -5.381  16.936  0.00  0.00    +0.000 C 
ATOM     10  C15 UNL     1       1.574  -4.491  16.475  0.00  0.00    +0.000 C 
ATOM     11  C16 UNL     1       2.031  -3.499  17.348  0.00  0.00    +0.000 C 
BRANCH  11  12
ATOM     12  C17 UNL     1       3.009  -2.571  16.858  0.00  0.00    +0.000 C 
ATOM     13  N2  UNL     1       3.792  -1.828  16.432  0.00  0.00    +0.000 NA
ENDBRANCH  11  12
ENDBRANCH   5   6
BRANCH   1  14
ATOM     14  C4  UNL     1      -0.139  -1.044  19.204  0.00  0.00    +0.000 C 
ATOM     15  O1  UNL     1      -0.958  -1.333  20.076  0.00  0.00    +0.000 OA
BRANCH  14  16
ATOM     16  C3  UNL     1      -0.552  -0.716  17.777  0.00  0.00    +0.000 C 
BRANCH  16  18
ATOM     17  C1  UNL     1       0.492  -0.197  15.524  0.00  0.00    +0.000 C 
ATOM     18  C2  UNL     1       0.477   0.114  17.014  0.00  0.00    +0.000 C 
ENDBRANCH  16  18
ENDBRANCH  14  16
ENDBRANCH   1  14
BRANCH   2  19
ATOM     19  C7  UNL     1       2.382   1.021  20.820  0.00  0.00    +0.000 C 
ATOM     20  C8  UNL     1       3.481   1.096  21.870  0.00  0.00    +0.000 C 
ENDBRANCH   2  19
TORSDOF 6
ENDMDL
MODEL 8
REMARK VINA RESULT:    -5.176     26.055     27.960
REMARK INTER + INTRA:          -8.209
REMARK INTER:                  -7.328
REMARK INTRA:                  -0.881
REMARK UNBOUND:                -1.218
REMARK  Name = ligantes_geracao2\Derivado_010.pdb
REMARK  8 active torsions:
REMARK  status: ('A' for Active; 'I' for Inactive)
REMARK    1  A    between atoms: C1_1  and  C2_2
REMARK    2  A    between atoms: C2_2  and  C3_3
REMARK    3  A    between atoms: C3_3  and  C4_4
REMARK    4  A    between atoms: C4_4  and  C5_6
REMARK    5  A    between atoms: C6_7  and  C7_8
REMARK    6  A    between atoms: C7_8  and  C8_9
REMARK    7  A    between atoms: C11_12  and  C12_13
REMARK    8  A    between atoms: C16_18  and  C17_19
REMARK                            x       y       z     vdW  Elec       q    Type
REMARK                         _______ _______ _______ _____ _____    ______ ____
ROOT
ATOM      1  C5  UNL     1       1.104   1.495  20.265  0.00  0.00    +0.000 C 
ATOM      2  C6  UNL     1       1.935   2.731  19.824  0.00  0.00    +0.000 C 
ATOM      3  C9  UNL     1       2.385   2.432  18.385  0.00  0.00    +0.000 C 
ATOM      4  C10 UNL     1       2.354   0.913  18.281  0.00  0.00    +0.000 C 
ATOM      5  C11 UNL     1       1.064   0.561  19.031  0.00  0.00    +0.000 C 
ENDROOT
BRANCH   5   6
ATOM      6  C12 UNL     1       0.769  -0.900  19.298  0.00  0.00    +0.000 C 
ATOM      7  C13 UNL     1       1.770  -1.867  19.309  0.00  0.00    +0.000 C 
ATOM      8  N1  UNL     1       1.561  -3.186  19.530  0.00  0.00    +0.000 NA
ATOM      9  C14 UNL     1       0.298  -3.585  19.767  0.00  0.00    +0.000 C 
ATOM     10  C15 UNL     1      -0.775  -2.719  19.794  0.00  0.00    +0.000 C 
ATOM     11  C16 UNL     1      -0.537  -1.362  19.557  0.00  0.00    +0.000 C 
BRANCH  11  12
ATOM     12  C17 UNL     1      -1.658  -0.467  19.597  0.00  0.00    +0.000 C 
ATOM     13  N2  UNL     1      -2.583   0.232  19.628  0.00  0.00    +0.000 NA
ENDBRANCH  11  12
ENDBRANCH   5   6
BRANCH   1  14
ATOM     14  C4  UNL     1       1.765   0.830  21.474  0.00  0.00    +0.000 C 
ATOM     15  O1  UNL     1       1.141   0.053  22.196  0.00  0.00    +0.000 OA
BRANCH  14  16
ATOM     16  C3  UNL     1       3.232   1.158  21.707  0.00  0.00    +0.000 C 
BRANCH  16  18
ATOM     17  C1  UNL     1       3.813   3.335  22.873  0.00  0.00    +0.000 C 
ATOM     18  C2  UNL     1       3.503   1.854  23.039  0.00  0.00    +0.000 C 
ENDBRANCH  16  18
ENDBRANCH  14  16
ENDBRANCH   1  14
BRANCH   2  19
ATOM     19  C7  UNL     1       1.167   4.056  19.902  0.00  0.00    +0.000 C 
ATOM     20  C8  UNL     1       2.061   5.274  19.715  0.00  0.00    +0.000 C 
ENDBRANCH   2  19
TORSDOF 6
ENDMDL
MODEL 9
REMARK VINA RESULT:    -5.163     29.983     31.029
REMARK INTER + INTRA:          -8.191
REMARK INTER:                  -7.111
REMARK INTRA:                  -1.080
REMARK UNBOUND:                -1.218
REMARK  Name = ligantes_geracao2\Derivado_010.pdb
REMARK  8 active torsions:
REMARK  status: ('A' for Active; 'I' for Inactive)
REMARK    1  A    between atoms: C1_1  and  C2_2
REMARK    2  A    between atoms: C2_2  and  C3_3
REMARK    3  A    between atoms: C3_3  and  C4_4
REMARK    4  A    between atoms: C4_4  and  C5_6
REMARK    5  A    between atoms: C6_7  and  C7_8
REMARK    6  A    between atoms: C7_8  and  C8_9
REMARK    7  A    between atoms: C11_12  and  C12_13
REMARK    8  A    between atoms: C16_18  and  C17_19
REMARK                            x       y       z     vdW  Elec       q    Type
REMARK                         _______ _______ _______ _____ _____    ______ ____
ROOT
ATOM      1  C5  UNL     1      17.713  -6.697   1.680  0.00  0.00    +0.000 C 
ATOM      2  C6  UNL     1      19.211  -7.051   1.883  0.00  0.00    +0.000 C 
ATOM      3  C9  UNL     1      19.898  -5.729   2.262  0.00  0.00    +0.000 C 
ATOM      4  C10 UNL     1      18.992  -4.648   1.690  0.00  0.00    +0.000 C 
ATOM      5  C11 UNL     1      17.594  -5.190   2.011  0.00  0.00    +0.000 C 
ENDROOT
BRANCH   5   6
ATOM      6  C12 UNL     1      16.397  -4.463   1.436  0.00  0.00    +0.000 C 
ATOM      7  C13 UNL     1      16.488  -3.676   0.292  0.00  0.00    +0.000 C 
ATOM      8  N1  UNL     1      15.454  -2.996  -0.257  0.00  0.00    +0.000 NA
ATOM      9  C14 UNL     1      14.254  -3.101   0.340  0.00  0.00    +0.000 C 
ATOM     10  C15 UNL     1      14.036  -3.860   1.470  0.00  0.00    +0.000 C 
ATOM     11  C16 UNL     1      15.119  -4.549   2.025  0.00  0.00    +0.000 C 
BRANCH  11  12
ATOM     12  C17 UNL     1      14.881  -5.344   3.195  0.00  0.00    +0.000 C 
ATOM     13  N2  UNL     1      14.675  -6.008   4.124  0.00  0.00    +0.000 NA
ENDBRANCH  11  12
ENDBRANCH   5   6
BRANCH   1  14
ATOM     14  C4  UNL     1      17.297  -7.010   0.241  0.00  0.00    +0.000 C 
ATOM     15  O1  UNL     1      16.129  -7.273  -0.043  0.00  0.00    +0.000 OA
BRANCH  14  16
ATOM     16  C3  UNL     1      18.394  -6.942  -0.810  0.00  0.00    +0.000 C 
BRANCH  16  18
ATOM     17  C1  UNL     1      18.732  -4.875  -2.240  0.00  0.00    +0.000 C 
ATOM     18  C2  UNL     1      17.989  -6.193  -2.076  0.00  0.00    +0.000 C 
ENDBRANCH  16  18
ENDBRANCH  14  16
ENDBRANCH   1  14
BRANCH   2  19
ATOM     19  C7  UNL     1      19.457  -8.130   2.945  0.00  0.00    +0.000 C 
ATOM     20  C8  UNL     1      20.625  -7.805   3.864  0.00  0.00    +0.000 C 
ENDBRANCH   2  19
TORSDOF 6
ENDMDL
