MODEL 1
REMARK VINA RESULT:    -5.808      0.000      0.000
REMARK INTER + INTRA:          -9.053
REMARK INTER:                  -7.845
REMARK INTRA:                  -1.208
REMARK UNBOUND:                -1.208
REMARK  Name = ligantes_geracao2\Derivado_009.pdb
REMARK  8 active torsions:
REMARK  status: ('A' for Active; 'I' for Inactive)
REMARK    1  A    between atoms: C1_1  and  C2_2
REMARK    2  A    between atoms: C2_2  and  C3_3
REMARK    3  A    between atoms: C3_3  and  C4_4
REMARK    4  A    between atoms: C4_4  and  C5_5
REMARK    5  A    between atoms: C5_5  and  C6_7
REMARK    6  A    between atoms: C7_8  and  C8_9
REMARK    7  A    between atoms: C11_12  and  C12_13
REMARK    8  A    between atoms: C16_18  and  C17_19
REMARK                            x       y       z     vdW  Elec       q    Type
REMARK                         _______ _______ _______ _____ _____    ______ ____
ROOT
ATOM      1  C6  UNL     1      20.963  18.048  20.468  0.00  0.00    +0.000 C 
ATOM      2  C7  UNL     1      22.265  17.770  21.251  0.00  0.00    +0.000 C 
ATOM      3  C8  UNL     1      22.507  18.686  22.457  0.00  0.00    +0.000 C 
ATOM      4  C9  UNL     1      23.326  18.005  20.175  0.00  0.00    +0.000 C 
ATOM      5  C10 UNL     1      22.852  19.253  19.438  0.00  0.00    +0.000 C 
ATOM      6  C11 UNL     1      21.315  19.282  19.594  0.00  0.00    +0.000 C 
ENDROOT
BRANCH   6   7
ATOM      7  C12 UNL     1      20.638  19.344  18.234  0.00  0.00    +0.000 C 
ATOM      8  C13 UNL     1      20.903  18.389  17.253  0.00  0.00    +0.000 C 
ATOM      9  N1  UNL     1      20.350  18.376  16.021  0.00  0.00    +0.000 NA
ATOM     10  C14 UNL     1      19.497  19.371  15.716  0.00  0.00    +0.000 C 
ATOM     11  C15 UNL     1      19.177  20.388  16.592  0.00  0.00    +0.000 C 
ATOM     12  C16 UNL     1      19.760  20.380  17.863  0.00  0.00    +0.000 C 
BRANCH  12  13
ATOM     13  C17 UNL     1      19.433  21.458  18.753  0.00  0.00    +0.000 C 
ATOM     14  N2  UNL     1      19.176  22.337  19.463  0.00  0.00    +0.000 NA
ENDBRANCH  12  13
ENDBRANCH   6   7
BRANCH   1  15
ATOM     15  C5  UNL     1      19.723  18.158  21.361  0.00  0.00    +0.000 C 
ATOM     16  O1  UNL     1      19.272  19.265  21.661  0.00  0.00    +0.000 OA
BRANCH  15  17
ATOM     17  C4  UNL     1      19.167  16.884  21.982  0.00  0.00    +0.000 C 
BRANCH  17  18
ATOM     18  C3  UNL     1      18.433  15.968  20.999  0.00  0.00    +0.000 C 
BRANCH  18  20
ATOM     19  C1  UNL     1      20.253  14.296  21.692  0.00  0.00    +0.000 C 
ATOM     20  C2  UNL     1      19.180  14.667  20.682  0.00  0.00    +0.000 C 
ENDBRANCH  18  20
ENDBRANCH  17  18
ENDBRANCH  15  17
ENDBRANCH   1  15
TORSDOF 6
ENDMDL
MODEL 2
REMARK VINA RESULT:    -5.769      2.649      5.164
REMARK INTER + INTRA:          -9.001
REMARK INTER:                  -7.930
REMARK INTRA:                  -1.071
REMARK UNBOUND:                -1.208
REMARK  Name = ligantes_geracao2\Derivado_009.pdb
REMARK  8 active torsions:
REMARK  status: ('A' for Active; 'I' for Inactive)
REMARK    1  A    between atoms: C1_1  and  C2_2
REMARK    2  A    between atoms: C2_2  and  C3_3
REMARK    3  A    between atoms: C3_3  and  C4_4
REMARK    4  A    between atoms: C4_4  and  C5_5
REMARK    5  A    between atoms: C5_5  and  C6_7
REMARK    6  A    between atoms: C7_8  and  C8_9
REMARK    7  A    between atoms: C11_12  and  C12_13
REMARK    8  A    between atoms: C16_18  and  C17_19
REMARK                            x       y       z     vdW  Elec       q    Type
REMARK                         _______ _______ _______ _____ _____    ______ ____
ROOT
ATOM      1  C6  UNL     1      19.879  19.677  18.029  0.00  0.00    +0.000 C 
ATOM      2  C7  UNL     1      19.144  20.985  17.661  0.00  0.00    +0.000 C 
ATOM      3  C8  UNL     1      19.874  21.879  16.651  0.00  0.00    +0.000 C 
ATOM      4  C9  UNL     1      19.047  21.676  19.021  0.00  0.00    +0.000 C 
ATOM      5  C10 UNL     1      20.410  21.444  19.665  0.00  0.00    +0.000 C 
ATOM      6  C11 UNL     1      20.954  20.134  19.052  0.00  0.00    +0.000 C 
ENDROOT
BRANCH   6   7
ATOM      7  C12 UNL     1      21.296  19.133  20.144  0.00  0.00    +0.000 C 
ATOM      8  C13 UNL     1      20.359  18.772  21.111  0.00  0.00    +0.000 C 
ATOM      9  N1  UNL     1      20.585  17.897  22.114  0.00  0.00    +0.000 NA
ATOM     10  C14 UNL     1      21.813  17.351  22.194  0.00  0.00    +0.000 C 
ATOM     11  C15 UNL     1      22.832  17.650  21.313  0.00  0.00    +0.000 C 
ATOM     12  C16 UNL     1      22.574  18.558  20.280  0.00  0.00    +0.000 C 
BRANCH  12  13
ATOM     13  C17 UNL     1      23.653  18.874  19.387  0.00  0.00    +0.000 C 
ATOM     14  N2  UNL     1      24.524  19.142  18.670  0.00  0.00    +0.000 NA
ENDBRANCH  12  13
ENDBRANCH   6   7
BRANCH   1  15
ATOM     15  C5  UNL     1      20.370  18.886  16.812  0.00  0.00    +0.000 C 
ATOM     16  O1  UNL     1      21.575  18.811  16.566  0.00  0.00    +0.000 OA
BRANCH  15  17
ATOM     17  C4  UNL     1      19.330  18.334  15.845  0.00  0.00    +0.000 C 
BRANCH  17  18
ATOM     18  C3  UNL     1      19.229  16.807  15.827  0.00  0.00    +0.000 C 
BRANCH  18  20
ATOM     19  C1  UNL     1      18.091  14.887  17.095  0.00  0.00    +0.000 C 
ATOM     20  C2  UNL     1      18.868  16.190  17.183  0.00  0.00    +0.000 C 
ENDBRANCH  18  20
ENDBRANCH  17  18
ENDBRANCH  15  17
ENDBRANCH   1  15
TORSDOF 6
ENDMDL
MODEL 3
REMARK VINA RESULT:    -5.637     24.372     26.736
REMARK INTER + INTRA:          -8.822
REMARK INTER:                  -7.036
REMARK INTRA:                  -1.787
REMARK UNBOUND:                -1.208
REMARK  Name = ligantes_geracao2\Derivado_009.pdb
REMARK  8 active torsions:
REMARK  status: ('A' for Active; 'I' for Inactive)
REMARK    1  A    between atoms: C1_1  and  C2_2
REMARK    2  A    between atoms: C2_2  and  C3_3
REMARK    3  A    between atoms: C3_3  and  C4_4
REMARK    4  A    between atoms: C4_4  and  C5_5
REMARK    5  A    between atoms: C5_5  and  C6_7
REMARK    6  A    between atoms: C7_8  and  C8_9
REMARK    7  A    between atoms: C11_12  and  C12_13
REMARK    8  A    between atoms: C16_18  and  C17_19
REMARK                            x       y       z     vdW  Elec       q    Type
REMARK                         _______ _______ _______ _____ _____    ______ ____
ROOT
ATOM      1  C6  UNL     1       1.496   1.096  20.876  0.00  0.00    +0.000 C 
ATOM      2  C7  UNL     1       2.267   0.802  22.182  0.00  0.00    +0.000 C 
ATOM      3  C8  UNL     1       3.790   0.955  22.085  0.00  0.00    +0.000 C 
ATOM      4  C9  UNL     1       1.887  -0.656  22.441  0.00  0.00    +0.000 C 
ATOM      5  C10 UNL     1       1.958  -1.319  21.069  0.00  0.00    +0.000 C 
ATOM      6  C11 UNL     1       1.678  -0.200  20.041  0.00  0.00    +0.000 C 
ENDROOT
BRANCH   6   7
ATOM      7  C12 UNL     1       0.511  -0.577  19.142  0.00  0.00    +0.000 C 
ATOM      8  C13 UNL     1      -0.789  -0.648  19.640  0.00  0.00    +0.000 C 
ATOM      9  N1  UNL     1      -1.877  -0.980  18.910  0.00  0.00    +0.000 NA
ATOM     10  C14 UNL     1      -1.682  -1.283  17.614  0.00  0.00    +0.000 C 
ATOM     11  C15 UNL     1      -0.440  -1.276  17.013  0.00  0.00    +0.000 C 
ATOM     12  C16 UNL     1       0.671  -0.927  17.787  0.00  0.00    +0.000 C 
BRANCH  12  13
ATOM     13  C17 UNL     1       1.959  -0.946  17.151  0.00  0.00    +0.000 C 
ATOM     14  N2  UNL     1       2.996  -0.949  16.633  0.00  0.00    +0.000 NA
ENDBRANCH  12  13
ENDBRANCH   6   7
BRANCH   1  15
ATOM     15  C5  UNL     1       1.898   2.416  20.210  0.00  0.00    +0.000 C 
ATOM     16  O1  UNL     1       1.563   3.490  20.712  0.00  0.00    +0.000 OA
BRANCH  15  17
ATOM     17  C4  UNL     1       2.579   2.358  18.849  0.00  0.00    +0.000 C 
BRANCH  17  18
ATOM     18  C3  UNL     1       1.975   3.293  17.798  0.00  0.00    +0.000 C 
BRANCH  18  20
ATOM     19  C1  UNL     1      -0.463   2.618  17.363  0.00  0.00    +0.000 C 
ATOM     20  C2  UNL     1       0.971   2.611  16.860  0.00  0.00    +0.000 C 
ENDBRANCH  18  20
ENDBRANCH  17  18
ENDBRANCH  15  17
ENDBRANCH   1  15
TORSDOF 6
ENDMDL
MODEL 4
REMARK VINA RESULT:    -5.635     23.103     26.024
REMARK INTER + INTRA:          -8.819
REMARK INTER:                  -7.646
REMARK INTRA:                  -1.173
REMARK UNBOUND:                -1.208
REMARK  Name = ligantes_geracao2\Derivado_009.pdb
REMARK  8 active torsions:
REMARK  status: ('A' for Active; 'I' for Inactive)
REMARK    1  A    between atoms: C1_1  and  C2_2
REMARK    2  A    between atoms: C2_2  and  C3_3
REMARK    3  A    between atoms: C3_3  and  C4_4
REMARK    4  A    between atoms: C4_4  and  C5_5
REMARK    5  A    between atoms: C5_5  and  C6_7
REMARK    6  A    between atoms: C7_8  and  C8_9
REMARK    7  A    between atoms: C11_12  and  C12_13
REMARK    8  A    between atoms: C16_18  and  C17_19
REMARK                            x       y       z     vdW  Elec       q    Type
REMARK                         _______ _______ _______ _____ _____    ______ ____
ROOT
ATOM      1  C6  UNL     1       2.403   1.525  19.308  0.00  0.00    +0.000 C 
ATOM      2  C7  UNL     1       1.965   2.974  18.999  0.00  0.00    +0.000 C 
ATOM      3  C8  UNL     1       0.729   3.458  19.768  0.00  0.00    +0.000 C 
ATOM      4  C9  UNL     1       1.670   2.892  17.501  0.00  0.00    +0.000 C 
ATOM      5  C10 UNL     1       0.932   1.568  17.329  0.00  0.00    +0.000 C 
ATOM      6  C11 UNL     1       1.419   0.657  18.480  0.00  0.00    +0.000 C 
ENDROOT
BRANCH   6   7
ATOM      7  C12 UNL     1       1.982  -0.644  17.932  0.00  0.00    +0.000 C 
ATOM      8  C13 UNL     1       2.868  -0.649  16.855  0.00  0.00    +0.000 C 
ATOM      9  N1  UNL     1       3.408  -1.760  16.308  0.00  0.00    +0.000 NA
ATOM     10  C14 UNL     1       3.046  -2.946  16.830  0.00  0.00    +0.000 C 
ATOM     11  C15 UNL     1       2.157  -3.071  17.878  0.00  0.00    +0.000 C 
ATOM     12  C16 UNL     1       1.612  -1.908  18.431  0.00  0.00    +0.000 C 
BRANCH  12  13
ATOM     13  C17 UNL     1       0.671  -2.058  19.505  0.00  0.00    +0.000 C 
ATOM     14  N2  UNL     1      -0.099  -2.177  20.364  0.00  0.00    +0.000 NA
ENDBRANCH  12  13
ENDBRANCH   6   7
BRANCH   1  15
ATOM     15  C5  UNL     1       2.506   1.223  20.807  0.00  0.00    +0.000 C 
ATOM     16  O1  UNL     1       1.577   0.661  21.391  0.00  0.00    +0.000 OA
BRANCH  15  17
ATOM     17  C4  UNL     1       3.706   1.767  21.571  0.00  0.00    +0.000 C 
BRANCH  17  18
ATOM     18  C3  UNL     1       3.419   2.118  23.033  0.00  0.00    +0.000 C 
BRANCH  18  20
ATOM     19  C1  UNL     1       3.369   4.534  22.169  0.00  0.00    +0.000 C 
ATOM     20  C2  UNL     1       3.568   3.609  23.358  0.00  0.00    +0.000 C 
ENDBRANCH  18  20
ENDBRANCH  17  18
ENDBRANCH  15  17
ENDBRANCH   1  15
TORSDOF 6
ENDMDL
MODEL 5
REMARK VINA RESULT:    -5.576      2.362      4.599
REMARK INTER + INTRA:          -8.740
REMARK INTER:                  -7.316
REMARK INTRA:                  -1.424
REMARK UNBOUND:                -1.208
REMARK  Name = ligantes_geracao2\Derivado_009.pdb
REMARK  8 active torsions:
REMARK  status: ('A' for Active; 'I' for Inactive)
REMARK    1  A    between atoms: C1_1  and  C2_2
REMARK    2  A    between atoms: C2_2  and  C3_3
REMARK    3  A    between atoms: C3_3  and  C4_4
REMARK    4  A    between atoms: C4_4  and  C5_5
REMARK    5  A    between atoms: C5_5  and  C6_7
REMARK    6  A    between atoms: C7_8  and  C8_9
REMARK    7  A    between atoms: C11_12  and  C12_13
REMARK    8  A    between atoms: C16_18  and  C17_19
REMARK                            x       y       z     vdW  Elec       q    Type
REMARK                         _______ _______ _______ _____ _____    ______ ____
ROOT
ATOM      1  C6  UNL     1      22.564  19.077  20.140  0.00  0.00    +0.000 C 
ATOM      2  C7  UNL     1      22.257  18.763  21.621  0.00  0.00    +0.000 C 
ATOM      3  C8  UNL     1      22.181  17.270  21.966  0.00  0.00    +0.000 C 
ATOM      4  C9  UNL     1      20.892  19.428  21.799  0.00  0.00    +0.000 C 
ATOM      5  C10 UNL     1      20.128  19.079  20.526  0.00  0.00    +0.000 C 
ATOM      6  C11 UNL     1      21.199  18.876  19.430  0.00  0.00    +0.000 C 
ENDROOT
BRANCH   6   7
ATOM      7  C12 UNL     1      20.929  19.785  18.242  0.00  0.00    +0.000 C 
ATOM      8  C13 UNL     1      21.233  21.145  18.292  0.00  0.00    +0.000 C 
ATOM      9  N1  UNL     1      21.020  22.020  17.285  0.00  0.00    +0.000 NA
ATOM     10  C14 UNL     1      20.456  21.542  16.160  0.00  0.00    +0.000 C 
ATOM     11  C15 UNL     1      20.085  20.223  16.001  0.00  0.00    +0.000 C 
ATOM     12  C16 UNL     1      20.317  19.335  17.057  0.00  0.00    +0.000 C 
BRANCH  12  13
ATOM     13  C17 UNL     1      19.905  17.971  16.882  0.00  0.00    +0.000 C 
ATOM     14  N2  UNL     1      19.580  16.865  16.752  0.00  0.00    +0.000 NA
ENDBRANCH  12  13
ENDBRANCH   6   7
BRANCH   1  15
ATOM     15  C5  UNL     1      23.760  18.299  19.582  0.00  0.00    +0.000 C 
ATOM     16  O1  UNL     1      24.774  18.147  20.267  0.00  0.00    +0.000 OA
BRANCH  15  17
ATOM     17  C4  UNL     1      23.718  17.861  18.125  0.00  0.00    +0.000 C 
BRANCH  17  18
ATOM     18  C3  UNL     1      24.776  18.519  17.235  0.00  0.00    +0.000 C 
BRANCH  18  20
ATOM     19  C1  UNL     1      24.050  20.561  15.859  0.00  0.00    +0.000 C 
ATOM     20  C2  UNL     1      24.659  20.046  17.152  0.00  0.00    +0.000 C 
ENDBRANCH  18  20
ENDBRANCH  17  18
ENDBRANCH  15  17
ENDBRANCH   1  15
TORSDOF 6
ENDMDL
MODEL 6
REMARK VINA RESULT:    -5.567     23.199     25.467
REMARK INTER + INTRA:          -8.728
REMARK INTER:                  -7.191
REMARK INTRA:                  -1.537
REMARK UNBOUND:                -1.208
REMARK  Name = ligantes_geracao2\Derivado_009.pdb
REMARK  8 active torsions:
REMARK  status: ('A' for Active; 'I' for Inactive)
REMARK    1  A    between atoms: C1_1  and  C2_2
REMARK    2  A    between atoms: C2_2  and  C3_3
REMARK    3  A    between atoms: C3_3  and  C4_4
REMARK    4  A    between atoms: C4_4  and  C5_5
REMARK    5  A    between atoms: C5_5  and  C6_7
REMARK    6  A    between atoms: C7_8  and  C8_9
REMARK    7  A    between atoms: C11_12  and  C12_13
REMARK    8  A    between atoms: C16_18  and  C17_19
REMARK                            x       y       z     vdW  Elec       q    Type
REMARK                         _______ _______ _______ _____ _____    ______ ____
ROOT
ATOM      1  C6  UNL     1       2.853   1.103  21.452  0.00  0.00    +0.000 C 
ATOM      2  C7  UNL     1       3.747   1.762  22.524  0.00  0.00    +0.000 C 
ATOM      3  C8  UNL     1       3.048   2.069  23.855  0.00  0.00    +0.000 C 
ATOM      4  C9  UNL     1       4.165   3.056  21.824  0.00  0.00    +0.000 C 
ATOM      5  C10 UNL     1       2.892   3.550  21.145  0.00  0.00    +0.000 C 
ATOM      6  C11 UNL     1       2.039   2.290  20.870  0.00  0.00    +0.000 C 
ENDROOT
BRANCH   6   7
ATOM      7  C12 UNL     1       1.687   2.192  19.394  0.00  0.00    +0.000 C 
ATOM      8  C13 UNL     1       2.530   1.542  18.494  0.00  0.00    +0.000 C 
ATOM      9  N1  UNL     1       2.294   1.416  17.170  0.00  0.00    +0.000 NA
ATOM     10  C14 UNL     1       1.171   1.979  16.687  0.00  0.00    +0.000 C 
ATOM     11  C15 UNL     1       0.274   2.673  17.472  0.00  0.00    +0.000 C 
ATOM     12  C16 UNL     1       0.538   2.788  18.841  0.00  0.00    +0.000 C 
BRANCH  12  13
ATOM     13  C17 UNL     1      -0.395   3.532  19.639  0.00  0.00    +0.000 C 
ATOM     14  N2  UNL     1      -1.147   4.144  20.275  0.00  0.00    +0.000 NA
ENDBRANCH  12  13
ENDBRANCH   6   7
BRANCH   1  15
ATOM     15  C5  UNL     1       2.056  -0.098  21.971  0.00  0.00    +0.000 C 
ATOM     16  O1  UNL     1       2.644  -1.086  22.416  0.00  0.00    +0.000 OA
BRANCH  15  17
ATOM     17  C4  UNL     1       0.546  -0.098  21.779  0.00  0.00    +0.000 C 
BRANCH  17  18
ATOM     18  C3  UNL     1       0.009  -1.286  20.975  0.00  0.00    +0.000 C 
BRANCH  18  20
ATOM     19  C1  UNL     1       1.334  -1.949  18.880  0.00  0.00    +0.000 C 
ATOM     20  C2  UNL     1       0.184  -1.143  19.459  0.00  0.00    +0.000 C 
ENDBRANCH  18  20
ENDBRANCH  17  18
ENDBRANCH  15  17
ENDBRANCH   1  15
TORSDOF 6
ENDMDL
MODEL 7
REMARK VINA RESULT:    -5.523     22.671     25.797
REMARK INTER + INTRA:          -8.669
REMARK INTER:                  -7.550
REMARK INTRA:                  -1.118
REMARK UNBOUND:                -1.208
REMARK  Name = ligantes_geracao2\Derivado_009.pdb
REMARK  8 active torsions:
REMARK  status: ('A' for Active; 'I' for Inactive)
REMARK    1  A    between atoms: C1_1  and  C2_2
REMARK    2  A    between atoms: C2_2  and  C3_3
REMARK    3  A    between atoms: C3_3  and  C4_4
REMARK    4  A    between atoms: C4_4  and  C5_5
REMARK    5  A    between atoms: C5_5  and  C6_7
REMARK    6  A    between atoms: C7_8  and  C8_9
REMARK    7  A    between atoms: C11_12  and  C12_13
REMARK    8  A    between atoms: C16_18  and  C17_19
REMARK                            x       y       z     vdW  Elec       q    Type
REMARK                         _______ _______ _______ _____ _____    ______ ____
ROOT
ATOM      1  C6  UNL     1       1.860   2.148  21.007  0.00  0.00    +0.000 C 
ATOM      2  C7  UNL     1       2.804   2.808  22.036  0.00  0.00    +0.000 C 
ATOM      3  C8  UNL     1       4.131   3.322  21.464  0.00  0.00    +0.000 C 
ATOM      4  C9  UNL     1       3.048   1.656  23.011  0.00  0.00    +0.000 C 
ATOM      5  C10 UNL     1       3.241   0.435  22.119  0.00  0.00    +0.000 C 
ATOM      6  C11 UNL     1       2.452   0.725  20.822  0.00  0.00    +0.000 C 
ENDROOT
BRANCH   6   7
ATOM      7  C12 UNL     1       1.445  -0.381  20.548  0.00  0.00    +0.000 C 
ATOM      8  C13 UNL     1       0.767  -1.012  21.589  0.00  0.00    +0.000 C 
ATOM      9  N1  UNL     1      -0.136  -2.004  21.430  0.00  0.00    +0.000 NA
ATOM     10  C14 UNL     1      -0.380  -2.423  20.174  0.00  0.00    +0.000 C 
ATOM     11  C15 UNL     1       0.249  -1.896  19.066  0.00  0.00    +0.000 C 
ATOM     12  C16 UNL     1       1.179  -0.868  19.254  0.00  0.00    +0.000 C 
BRANCH  12  13
ATOM     13  C17 UNL     1       1.840  -0.347  18.091  0.00  0.00    +0.000 C 
ATOM     14  N2  UNL     1       2.377   0.086  17.159  0.00  0.00    +0.000 NA
ENDBRANCH  12  13
ENDBRANCH   6   7
BRANCH   1  15
ATOM     15  C5  UNL     1       1.652   2.985  19.740  0.00  0.00    +0.000 C 
ATOM     16  O1  UNL     1       2.519   3.010  18.865  0.00  0.00    +0.000 OA
BRANCH  15  17
ATOM     17  C4  UNL     1       0.431   3.892  19.669  0.00  0.00    +0.000 C 
BRANCH  17  18
ATOM     18  C3  UNL     1       0.510   5.133  20.561  0.00  0.00    +0.000 C 
BRANCH  18  20
ATOM     19  C1  UNL     1       2.545   6.633  21.005  0.00  0.00    +0.000 C 
ATOM     20  C2  UNL     1       1.453   6.222  20.033  0.00  0.00    +0.000 C 
ENDBRANCH  18  20
ENDBRANCH  17  18
ENDBRANCH  15  17
ENDBRANCH   1  15
TORSDOF 6
ENDMDL
MODEL 8
REMARK VINA RESULT:    -5.479     28.162     30.380
REMARK INTER + INTRA:          -8.609
REMARK INTER:                  -7.495
REMARK INTRA:                  -1.114
REMARK UNBOUND:                -1.208
REMARK  Name = ligantes_geracao2\Derivado_009.pdb
REMARK  8 active torsions:
REMARK  status: ('A' for Active; 'I' for Inactive)
REMARK    1  A    between atoms: C1_1  and  C2_2
REMARK    2  A    between atoms: C2_2  and  C3_3
REMARK    3  A    between atoms: C3_3  and  C4_4
REMARK    4  A    between atoms: C4_4  and  C5_5
REMARK    5  A    between atoms: C5_5  and  C6_7
REMARK    6  A    between atoms: C7_8  and  C8_9
REMARK    7  A    between atoms: C11_12  and  C12_13
REMARK    8  A    between atoms: C16_18  and  C17_19
REMARK                            x       y       z     vdW  Elec       q    Type
REMARK                         _______ _______ _______ _____ _____    ______ ____
ROOT
ATOM      1  C6  UNL     1      17.672  -6.340   1.868  0.00  0.00    +0.000 C 
ATOM      2  C7  UNL     1      17.246  -7.748   2.339  0.00  0.00    +0.000 C 
ATOM      3  C8  UNL     1      17.044  -8.775   1.218  0.00  0.00    +0.000 C 
ATOM      4  C9  UNL     1      15.922  -7.449   3.043  0.00  0.00    +0.000 C 
ATOM      5  C10 UNL     1      15.222  -6.449   2.129  0.00  0.00    +0.000 C 
ATOM      6  C11 UNL     1      16.346  -5.699   1.378  0.00  0.00    +0.000 C 
ENDROOT
BRANCH   6   7
ATOM      7  C12 UNL     1      16.220  -4.198   1.585  0.00  0.00    +0.000 C 
ATOM      8  C13 UNL     1      16.520  -3.612   2.813  0.00  0.00    +0.000 C 
ATOM      9  N1  UNL     1      16.429  -2.290   3.079  0.00  0.00    +0.000 NA
ATOM     10  C14 UNL     1      15.998  -1.489   2.089  0.00  0.00    +0.000 C 
ATOM     11  C15 UNL     1      15.644  -1.954   0.839  0.00  0.00    +0.000 C 
ATOM     12  C16 UNL     1      15.748  -3.325   0.585  0.00  0.00    +0.000 C 
BRANCH  12  13
ATOM     13  C17 UNL     1      15.354  -3.794  -0.713  0.00  0.00    +0.000 C 
ATOM     14  N2  UNL     1      15.024  -4.167  -1.761  0.00  0.00    +0.000 NA
ENDBRANCH  12  13
ENDBRANCH   6   7
BRANCH   1  15
ATOM     15  C5  UNL     1      18.845  -6.351   0.882  0.00  0.00    +0.000 C 
ATOM     16  O1  UNL     1      18.647  -6.159  -0.319  0.00  0.00    +0.000 OA
BRANCH  15  17
ATOM     17  C4  UNL     1      20.218  -6.756   1.401  0.00  0.00    +0.000 C 
BRANCH  17  18
ATOM     18  C3  UNL     1      20.391  -6.610   2.915  0.00  0.00    +0.000 C 
BRANCH  18  20
ATOM     19  C1  UNL     1      20.109  -8.617   4.491  0.00  0.00    +0.000 C 
ATOM     20  C2  UNL     1      21.040  -7.825   3.589  0.00  0.00    +0.000 C 
ENDBRANCH  18  20
ENDBRANCH  17  18
ENDBRANCH  15  17
ENDBRANCH   1  15
TORSDOF 6
ENDMDL
MODEL 9
REMARK VINA RESULT:    -5.436      2.078      3.027
REMARK INTER + INTRA:          -8.551
REMARK INTER:                  -7.410
REMARK INTRA:                  -1.141
REMARK UNBOUND:                -1.208
REMARK  Name = ligantes_geracao2\Derivado_009.pdb
REMARK  8 active torsions:
REMARK  status: ('A' for Active; 'I' for Inactive)
REMARK    1  A    between atoms: C1_1  and  C2_2
REMARK    2  A    between atoms: C2_2  and  C3_3
REMARK    3  A    between atoms: C3_3  and  C4_4
REMARK    4  A    between atoms: C4_4  and  C5_5
REMARK    5  A    between atoms: C5_5  and  C6_7
REMARK    6  A    between atoms: C7_8  and  C8_9
REMARK    7  A    between atoms: C11_12  and  C12_13
REMARK    8  A    between atoms: C16_18  and  C17_19
REMARK                            x       y       z     vdW  Elec       q    Type
REMARK                         _______ _______ _______ _____ _____    ______ ____
ROOT
ATOM      1  C6  UNL     1      21.143  19.336  18.930  0.00  0.00    +0.000 C 
ATOM      2  C7  UNL     1      22.617  19.783  19.050  0.00  0.00    +0.000 C 
ATOM      3  C8  UNL     1      22.831  21.300  19.132  0.00  0.00    +0.000 C 
ATOM      4  C9  UNL     1      23.213  19.224  17.758  0.00  0.00    +0.000 C 
ATOM      5  C10 UNL     1      22.164  19.521  16.693  0.00  0.00    +0.000 C 
ATOM      6  C11 UNL     1      20.808  19.570  17.432  0.00  0.00    +0.000 C 
ENDROOT
BRANCH   6   7
ATOM      7  C12 UNL     1      19.824  18.591  16.813  0.00  0.00    +0.000 C 
ATOM      8  C13 UNL     1      19.797  17.252  17.204  0.00  0.00    +0.000 C 
ATOM      9  N1  UNL     1      18.959  16.320  16.700  0.00  0.00    +0.000 NA
ATOM     10  C14 UNL     1      18.105  16.712  15.738  0.00  0.00    +0.000 C 
ATOM     11  C15 UNL     1      18.056  18.001  15.248  0.00  0.00    +0.000 C 
ATOM     12  C16 UNL     1      18.930  18.950  15.786  0.00  0.00    +0.000 C 
BRANCH  12  13
ATOM     13  C17 UNL     1      18.881  20.281  15.249  0.00  0.00    +0.000 C 
ATOM     14  N2  UNL     1      18.834  21.351  14.805  0.00  0.00    +0.000 NA
ENDBRANCH  12  13
ENDBRANCH   6   7
BRANCH   1  15
ATOM     15  C5  UNL     1      20.217  19.991  19.961  0.00  0.00    +0.000 C 
ATOM     16  O1  UNL     1      19.593  21.014  19.672  0.00  0.00    +0.000 OA
BRANCH  15  17
ATOM     17  C4  UNL     1      20.213  19.437  21.379  0.00  0.00    +0.000 C 
BRANCH  17  18
ATOM     18  C3  UNL     1      19.996  17.924  21.467  0.00  0.00    +0.000 C 
BRANCH  18  20
ATOM     19  C1  UNL     1      22.457  17.947  22.197  0.00  0.00    +0.000 C 
ATOM     20  C2  UNL     1      21.156  17.165  22.122  0.00  0.00    +0.000 C 
ENDBRANCH  18  20
ENDBRANCH  17  18
ENDBRANCH  15  17
ENDBRANCH   1  15
TORSDOF 6
ENDMDL
