MODEL 1
REMARK VINA RESULT:    -8.822      0.000      0.000
REMARK INTER + INTRA:         -12.649
REMARK INTER:                 -11.400
REMARK INTRA:                  -1.249
REMARK UNBOUND:                -1.249
REMARK  Name = ligantes_geracao2\Derivado_011.pdb
REMARK  8 active torsions:
REMARK  status: ('A' for Active; 'I' for Inactive)
REMARK    1  A    between atoms: C1_1  and  C2_2
REMARK    2  A    between atoms: C2_2  and  C3_3
REMARK    3  A    between atoms: C2_2  and  C4_4
REMARK    4  A    between atoms: C4_4  and  C5_5
REMARK    5  A    between atoms: C5_5  and  C6_7
REMARK    6  A    between atoms: C7_8  and  C8_9
REMARK    7  A    between atoms: C11_12  and  C12_13
REMARK    8  A    between atoms: C16_18  and  C17_19
REMARK                            x       y       z     vdW  Elec       q    Type
REMARK                         _______ _______ _______ _____ _____    ______ ____
ROOT
ATOM      1  C6  UNL     1       3.529  66.724  66.426  0.00  0.00    +0.000 C 
ATOM      2  C7  UNL     1       3.945  66.951  67.884  0.00  0.00    +0.000 C 
ATOM      3  C8  UNL     1       3.773  65.721  68.765  0.00  0.00    +0.000 C 
ATOM      4  C9  UNL     1       3.047  68.106  68.318  0.00  0.00    +0.000 C 
ATOM      5  C10 UNL     1       2.976  69.027  67.102  0.00  0.00    +0.000 C 
ATOM      6  C11 UNL     1       3.338  68.157  65.882  0.00  0.00    +0.000 C 
ENDROOT
BRANCH   6   7
ATOM      7  C12 UNL     1       2.392  68.252  64.702  0.00  0.00    +0.000 C 
ATOM      8  C13 UNL     1       1.034  68.022  64.930  0.00  0.00    +0.000 C 
ATOM      9  N1  UNL     1       0.072  68.076  63.982  0.00  0.00    +0.000 NA
ATOM     10  C14 UNL     1       0.459  68.374  62.729  0.00  0.00    +0.000 C 
ATOM     11  C15 UNL     1       1.771  68.629  62.383  0.00  0.00    +0.000 C 
ATOM     12  C16 UNL     1       2.750  68.572  63.381  0.00  0.00    +0.000 C 
BRANCH  12  13
ATOM     13  C17 UNL     1       4.099  68.869  62.993  0.00  0.00    +0.000 C 
ATOM     14  N2  UNL     1       5.194  69.120  62.702  0.00  0.00    +0.000 NA
ENDBRANCH  12  13
ENDBRANCH   6   7
BRANCH   1  15
ATOM     15  C5  UNL     1       4.600  65.965  65.652  0.00  0.00    +0.000 C 
ATOM     16  O1  UNL     1       5.790  66.268  65.739  0.00  0.00    +0.000 OA
BRANCH  15  17
ATOM     17  C4  UNL     1       4.108  64.843  64.749  0.00  0.00    +0.000 C 
BRANCH  17  19
ATOM     18  C1  UNL     1       4.477  65.506  62.355  0.00  0.00    +0.000 C 
ATOM     19  C2  UNL     1       4.980  64.628  63.503  0.00  0.00    +0.000 C 
ATOM     20  C3  UNL     1       4.979  63.160  63.071  0.00  0.00    +0.000 C 
ENDBRANCH  17  19
ENDBRANCH  15  17
ENDBRANCH   1  15
TORSDOF 5
ENDMDL
MODEL 2
REMARK VINA RESULT:    -8.407      2.755      5.535
REMARK INTER + INTRA:         -12.114
REMARK INTER:                 -11.100
REMARK INTRA:                  -1.014
REMARK UNBOUND:                -1.249
REMARK  Name = ligantes_geracao2\Derivado_011.pdb
REMARK  8 active torsions:
REMARK  status: ('A' for Active; 'I' for Inactive)
REMARK    1  A    between atoms: C1_1  and  C2_2
REMARK    2  A    between atoms: C2_2  and  C3_3
REMARK    3  A    between atoms: C2_2  and  C4_4
REMARK    4  A    between atoms: C4_4  and  C5_5
REMARK    5  A    between atoms: C5_5  and  C6_7
REMARK    6  A    between atoms: C7_8  and  C8_9
REMARK    7  A    between atoms: C11_12  and  C12_13
REMARK    8  A    between atoms: C16_18  and  C17_19
REMARK                            x       y       z     vdW  Elec       q    Type
REMARK                         _______ _______ _______ _____ _____    ______ ____
ROOT
ATOM      1  C6  UNL     1       3.100  67.974  63.779  0.00  0.00    +0.000 C 
ATOM      2  C7  UNL     1       3.670  68.751  62.587  0.00  0.00    +0.000 C 
ATOM      3  C8  UNL     1       3.516  68.027  61.257  0.00  0.00    +0.000 C 
ATOM      4  C9  UNL     1       5.133  68.946  62.977  0.00  0.00    +0.000 C 
ATOM      5  C10 UNL     1       5.107  69.218  64.478  0.00  0.00    +0.000 C 
ATOM      6  C11 UNL     1       3.775  68.642  64.997  0.00  0.00    +0.000 C 
ENDROOT
BRANCH   6   7
ATOM      7  C12 UNL     1       3.874  67.750  66.218  0.00  0.00    +0.000 C 
ATOM      8  C13 UNL     1       4.521  66.520  66.081  0.00  0.00    +0.000 C 
ATOM      9  N1  UNL     1       4.693  65.623  67.078  0.00  0.00    +0.000 NA
ATOM     10  C14 UNL     1       4.201  65.945  68.287  0.00  0.00    +0.000 C 
ATOM     11  C15 UNL     1       3.551  67.134  68.547  0.00  0.00    +0.000 C 
ATOM     12  C16 UNL     1       3.388  68.051  67.502  0.00  0.00    +0.000 C 
BRANCH  12  13
ATOM     13  C17 UNL     1       2.731  69.289  67.812  0.00  0.00    +0.000 C 
ATOM     14  N2  UNL     1       2.195  70.281  68.085  0.00  0.00    +0.000 NA
ENDBRANCH  12  13
ENDBRANCH   6   7
BRANCH   1  15
ATOM     15  C5  UNL     1       1.582  68.085  63.844  0.00  0.00    +0.000 C 
ATOM     16  O1  UNL     1       0.963  68.851  63.106  0.00  0.00    +0.000 OA
BRANCH  15  17
ATOM     17  C4  UNL     1       0.889  67.221  64.888  0.00  0.00    +0.000 C 
BRANCH  17  19
ATOM     18  C1  UNL     1      -0.181  67.289  67.160  0.00  0.00    +0.000 C 
ATOM     19  C2  UNL     1      -0.049  68.009  65.816  0.00  0.00    +0.000 C 
ATOM     20  C3  UNL     1      -1.432  68.188  65.186  0.00  0.00    +0.000 C 
ENDBRANCH  17  19
ENDBRANCH  15  17
ENDBRANCH   1  15
TORSDOF 5
ENDMDL
MODEL 3
REMARK VINA RESULT:    -8.363      1.027      2.258
REMARK INTER + INTRA:         -12.057
REMARK INTER:                 -11.202
REMARK INTRA:                  -0.855
REMARK UNBOUND:                -1.249
REMARK  Name = ligantes_geracao2\Derivado_011.pdb
REMARK  8 active torsions:
REMARK  status: ('A' for Active; 'I' for Inactive)
REMARK    1  A    between atoms: C1_1  and  C2_2
REMARK    2  A    between atoms: C2_2  and  C3_3
REMARK    3  A    between atoms: C2_2  and  C4_4
REMARK    4  A    between atoms: C4_4  and  C5_5
REMARK    5  A    between atoms: C5_5  and  C6_7
REMARK    6  A    between atoms: C7_8  and  C8_9
REMARK    7  A    between atoms: C11_12  and  C12_13
REMARK    8  A    between atoms: C16_18  and  C17_19
REMARK                            x       y       z     vdW  Elec       q    Type
REMARK                         _______ _______ _______ _____ _____    ______ ____
ROOT
ATOM      1  C6  UNL     1       3.492  66.762  66.586  0.00  0.00    +0.000 C 
ATOM      2  C7  UNL     1       3.906  66.997  68.043  0.00  0.00    +0.000 C 
ATOM      3  C8  UNL     1       3.759  65.766  68.925  0.00  0.00    +0.000 C 
ATOM      4  C9  UNL     1       2.987  68.136  68.478  0.00  0.00    +0.000 C 
ATOM      5  C10 UNL     1       2.896  69.054  67.262  0.00  0.00    +0.000 C 
ATOM      6  C11 UNL     1       3.272  68.191  66.042  0.00  0.00    +0.000 C 
ENDROOT
BRANCH   6   7
ATOM      7  C12 UNL     1       2.322  68.267  64.863  0.00  0.00    +0.000 C 
ATOM      8  C13 UNL     1       2.851  68.600  63.615  0.00  0.00    +0.000 C 
ATOM      9  N1  UNL     1       2.133  68.700  62.474  0.00  0.00    +0.000 NA
ATOM     10  C14 UNL     1       0.813  68.462  62.555  0.00  0.00    +0.000 C 
ATOM     11  C15 UNL     1       0.177  68.117  63.731  0.00  0.00    +0.000 C 
ATOM     12  C16 UNL     1       0.940  68.013  64.899  0.00  0.00    +0.000 C 
BRANCH  12  13
ATOM     13  C17 UNL     1       0.253  67.627  66.098  0.00  0.00    +0.000 C 
ATOM     14  N2  UNL     1      -0.308  67.293  67.057  0.00  0.00    +0.000 NA
ENDBRANCH  12  13
ENDBRANCH   6   7
BRANCH   1  15
ATOM     15  C5  UNL     1       4.575  66.023  65.810  0.00  0.00    +0.000 C 
ATOM     16  O1  UNL     1       5.760  66.347  65.896  0.00  0.00    +0.000 OA
BRANCH  15  17
ATOM     17  C4  UNL     1       4.103  64.893  64.907  0.00  0.00    +0.000 C 
BRANCH  17  19
ATOM     18  C1  UNL     1       4.465  65.715  62.561  0.00  0.00    +0.000 C 
ATOM     19  C2  UNL     1       4.943  64.731  63.631  0.00  0.00    +0.000 C 
ATOM     20  C3  UNL     1       4.865  63.301  63.092  0.00  0.00    +0.000 C 
ENDBRANCH  17  19
ENDBRANCH  15  17
ENDBRANCH   1  15
TORSDOF 5
ENDMDL
MODEL 4
REMARK VINA RESULT:    -8.023      2.498      5.320
REMARK INTER + INTRA:         -11.617
REMARK INTER:                 -10.894
REMARK INTRA:                  -0.722
REMARK UNBOUND:                -1.249
REMARK  Name = ligantes_geracao2\Derivado_011.pdb
REMARK  8 active torsions:
REMARK  status: ('A' for Active; 'I' for Inactive)
REMARK    1  A    between atoms: C1_1  and  C2_2
REMARK    2  A    between atoms: C2_2  and  C3_3
REMARK    3  A    between atoms: C2_2  and  C4_4
REMARK    4  A    between atoms: C4_4  and  C5_5
REMARK    5  A    between atoms: C5_5  and  C6_7
REMARK    6  A    between atoms: C7_8  and  C8_9
REMARK    7  A    between atoms: C11_12  and  C12_13
REMARK    8  A    between atoms: C16_18  and  C17_19
REMARK                            x       y       z     vdW  Elec       q    Type
REMARK                         _______ _______ _______ _____ _____    ______ ____
ROOT
ATOM      1  C6  UNL     1       3.011  68.011  63.767  0.00  0.00    +0.000 C 
ATOM      2  C7  UNL     1       3.620  68.713  62.548  0.00  0.00    +0.000 C 
ATOM      3  C8  UNL     1       3.511  67.907  61.262  0.00  0.00    +0.000 C 
ATOM      4  C9  UNL     1       5.069  68.935  62.973  0.00  0.00    +0.000 C 
ATOM      5  C10 UNL     1       4.994  69.300  64.453  0.00  0.00    +0.000 C 
ATOM      6  C11 UNL     1       3.645  68.755  64.963  0.00  0.00    +0.000 C 
ENDROOT
BRANCH   6   7
ATOM      7  C12 UNL     1       3.704  67.942  66.240  0.00  0.00    +0.000 C 
ATOM      8  C13 UNL     1       3.213  68.523  67.411  0.00  0.00    +0.000 C 
ATOM      9  N1  UNL     1       3.192  67.922  68.621  0.00  0.00    +0.000 NA
ATOM     10  C14 UNL     1       3.683  66.673  68.696  0.00  0.00    +0.000 C 
ATOM     11  C15 UNL     1       4.187  65.992  67.607  0.00  0.00    +0.000 C 
ATOM     12  C16 UNL     1       4.195  66.630  66.362  0.00  0.00    +0.000 C 
BRANCH  12  13
ATOM     13  C17 UNL     1       4.701  65.885  65.245  0.00  0.00    +0.000 C 
ATOM     14  N2  UNL     1       5.107  65.301  64.329  0.00  0.00    +0.000 NA
ENDBRANCH  12  13
ENDBRANCH   6   7
BRANCH   1  15
ATOM     15  C5  UNL     1       1.491  68.123  63.775  0.00  0.00    +0.000 C 
ATOM     16  O1  UNL     1       0.901  68.889  63.012  0.00  0.00    +0.000 OA
BRANCH  15  17
ATOM     17  C4  UNL     1       0.759  67.262  64.794  0.00  0.00    +0.000 C 
BRANCH  17  19
ATOM     18  C1  UNL     1      -0.126  67.355  67.142  0.00  0.00    +0.000 C 
ATOM     19  C2  UNL     1      -0.085  68.071  65.791  0.00  0.00    +0.000 C 
ATOM     20  C3  UNL     1      -1.509  68.280  65.272  0.00  0.00    +0.000 C 
ENDBRANCH  17  19
ENDBRANCH  15  17
ENDBRANCH   1  15
TORSDOF 5
ENDMDL
MODEL 5
REMARK VINA RESULT:    -7.823      1.806      4.277
REMARK INTER + INTRA:         -11.359
REMARK INTER:                  -9.996
REMARK INTRA:                  -1.363
REMARK UNBOUND:                -1.249
REMARK  Name = ligantes_geracao2\Derivado_011.pdb
REMARK  8 active torsions:
REMARK  status: ('A' for Active; 'I' for Inactive)
REMARK    1  A    between atoms: C1_1  and  C2_2
REMARK    2  A    between atoms: C2_2  and  C3_3
REMARK    3  A    between atoms: C2_2  and  C4_4
REMARK    4  A    between atoms: C4_4  and  C5_5
REMARK    5  A    between atoms: C5_5  and  C6_7
REMARK    6  A    between atoms: C7_8  and  C8_9
REMARK    7  A    between atoms: C11_12  and  C12_13
REMARK    8  A    between atoms: C16_18  and  C17_19
REMARK                            x       y       z     vdW  Elec       q    Type
REMARK                         _______ _______ _______ _____ _____    ______ ____
ROOT
ATOM      1  C6  UNL     1       3.725  66.944  65.725  0.00  0.00    +0.000 C 
ATOM      2  C7  UNL     1       3.852  65.714  66.631  0.00  0.00    +0.000 C 
ATOM      3  C8  UNL     1       5.066  65.755  67.548  0.00  0.00    +0.000 C 
ATOM      4  C9  UNL     1       3.918  64.562  65.631  0.00  0.00    +0.000 C 
ATOM      5  C10 UNL     1       2.935  64.942  64.527  0.00  0.00    +0.000 C 
ATOM      6  C11 UNL     1       2.763  66.472  64.613  0.00  0.00    +0.000 C 
ENDROOT
BRANCH   6   7
ATOM      7  C12 UNL     1       2.906  67.225  63.306  0.00  0.00    +0.000 C 
ATOM      8  C13 UNL     1       4.125  67.139  62.630  0.00  0.00    +0.000 C 
ATOM      9  N1  UNL     1       4.400  67.748  61.455  0.00  0.00    +0.000 NA
ATOM     10  C14 UNL     1       3.424  68.490  60.903  0.00  0.00    +0.000 C 
ATOM     11  C15 UNL     1       2.177  68.644  61.473  0.00  0.00    +0.000 C 
ATOM     12  C16 UNL     1       1.911  68.001  62.687  0.00  0.00    +0.000 C 
BRANCH  12  13
ATOM     13  C17 UNL     1       0.596  68.160  63.238  0.00  0.00    +0.000 C 
ATOM     14  N2  UNL     1      -0.476  68.271  63.668  0.00  0.00    +0.000 NA
ENDBRANCH  12  13
ENDBRANCH   6   7
BRANCH   1  15
ATOM     15  C5  UNL     1       3.165  68.141  66.484  0.00  0.00    +0.000 C 
ATOM     16  O1  UNL     1       3.567  69.284  66.266  0.00  0.00    +0.000 OA
BRANCH  15  17
ATOM     17  C4  UNL     1       2.111  67.835  67.539  0.00  0.00    +0.000 C 
BRANCH  17  19
ATOM     18  C1  UNL     1       0.162  69.365  67.129  0.00  0.00    +0.000 C 
ATOM     19  C2  UNL     1       0.670  67.925  67.015  0.00  0.00    +0.000 C 
ATOM     20  C3  UNL     1      -0.261  66.986  67.784  0.00  0.00    +0.000 C 
ENDBRANCH  17  19
ENDBRANCH  15  17
ENDBRANCH   1  15
TORSDOF 5
ENDMDL
MODEL 6
REMARK VINA RESULT:    -7.762      2.076      3.219
REMARK INTER + INTRA:         -11.279
REMARK INTER:                  -9.928
REMARK INTRA:                  -1.352
REMARK UNBOUND:                -1.249
REMARK  Name = ligantes_geracao2\Derivado_011.pdb
REMARK  8 active torsions:
REMARK  status: ('A' for Active; 'I' for Inactive)
REMARK    1  A    between atoms: C1_1  and  C2_2
REMARK    2  A    between atoms: C2_2  and  C3_3
REMARK    3  A    between atoms: C2_2  and  C4_4
REMARK    4  A    between atoms: C4_4  and  C5_5
REMARK    5  A    between atoms: C5_5  and  C6_7
REMARK    6  A    between atoms: C7_8  and  C8_9
REMARK    7  A    between atoms: C11_12  and  C12_13
REMARK    8  A    between atoms: C16_18  and  C17_19
REMARK                            x       y       z     vdW  Elec       q    Type
REMARK                         _______ _______ _______ _____ _____    ______ ____
ROOT
ATOM      1  C6  UNL     1       3.090  66.323  66.720  0.00  0.00    +0.000 C 
ATOM      2  C7  UNL     1       4.378  66.652  67.483  0.00  0.00    +0.000 C 
ATOM      3  C8  UNL     1       5.183  65.423  67.880  0.00  0.00    +0.000 C 
ATOM      4  C9  UNL     1       3.867  67.428  68.694  0.00  0.00    +0.000 C 
ATOM      5  C10 UNL     1       2.728  68.290  68.157  0.00  0.00    +0.000 C 
ATOM      6  C11 UNL     1       2.254  67.615  66.855  0.00  0.00    +0.000 C 
ENDROOT
BRANCH   6   7
ATOM      7  C12 UNL     1       0.759  67.403  66.729  0.00  0.00    +0.000 C 
ATOM      8  C13 UNL     1       0.057  66.989  67.863  0.00  0.00    +0.000 C 
ATOM      9  N1  UNL     1      -1.275  66.766  67.907  0.00  0.00    +0.000 NA
ATOM     10  C14 UNL     1      -1.969  66.958  66.772  0.00  0.00    +0.000 C 
ATOM     11  C15 UNL     1      -1.388  67.374  65.592  0.00  0.00    +0.000 C 
ATOM     12  C16 UNL     1      -0.008  67.604  65.568  0.00  0.00    +0.000 C 
BRANCH  12  13
ATOM     13  C17 UNL     1       0.560  68.062  64.333  0.00  0.00    +0.000 C 
ATOM     14  N2  UNL     1       1.001  68.448  63.331  0.00  0.00    +0.000 NA
ENDBRANCH  12  13
ENDBRANCH   6   7
BRANCH   1  15
ATOM     15  C5  UNL     1       3.374  65.984  65.262  0.00  0.00    +0.000 C 
ATOM     16  O1  UNL     1       2.654  65.210  64.631  0.00  0.00    +0.000 OA
BRANCH  15  17
ATOM     17  C4  UNL     1       4.609  66.631  64.651  0.00  0.00    +0.000 C 
BRANCH  17  19
ATOM     18  C1  UNL     1       4.706  67.466  62.284  0.00  0.00    +0.000 C 
ATOM     19  C2  UNL     1       4.289  67.808  63.716  0.00  0.00    +0.000 C 
ATOM     20  C3  UNL     1       4.997  69.086  64.170  0.00  0.00    +0.000 C 
ENDBRANCH  17  19
ENDBRANCH  15  17
ENDBRANCH   1  15
TORSDOF 5
ENDMDL
MODEL 7
REMARK VINA RESULT:    -7.326      6.350      9.371
REMARK INTER + INTRA:         -10.716
REMARK INTER:                  -9.523
REMARK INTRA:                  -1.193
REMARK UNBOUND:                -1.249
REMARK  Name = ligantes_geracao2\Derivado_011.pdb
REMARK  8 active torsions:
REMARK  status: ('A' for Active; 'I' for Inactive)
REMARK    1  A    between atoms: C1_1  and  C2_2
REMARK    2  A    between atoms: C2_2  and  C3_3
REMARK    3  A    between atoms: C2_2  and  C4_4
REMARK    4  A    between atoms: C4_4  and  C5_5
REMARK    5  A    between atoms: C5_5  and  C6_7
REMARK    6  A    between atoms: C7_8  and  C8_9
REMARK    7  A    between atoms: C11_12  and  C12_13
REMARK    8  A    between atoms: C16_18  and  C17_19
REMARK                            x       y       z     vdW  Elec       q    Type
REMARK                         _______ _______ _______ _____ _____    ______ ____
ROOT
ATOM      1  C6  UNL     1       1.583  62.681  70.745  0.00  0.00    +0.000 C 
ATOM      2  C7  UNL     1       0.202  63.300  70.503  0.00  0.00    +0.000 C 
ATOM      3  C8  UNL     1       0.171  64.812  70.681  0.00  0.00    +0.000 C 
ATOM      4  C9  UNL     1      -0.677  62.578  71.520  0.00  0.00    +0.000 C 
ATOM      5  C10 UNL     1      -0.170  61.138  71.526  0.00  0.00    +0.000 C 
ATOM      6  C11 UNL     1       1.269  61.187  70.977  0.00  0.00    +0.000 C 
ENDROOT
BRANCH   6   7
ATOM      7  C12 UNL     1       2.312  60.454  71.797  0.00  0.00    +0.000 C 
ATOM      8  C13 UNL     1       2.205  60.503  73.188  0.00  0.00    +0.000 C 
ATOM      9  N1  UNL     1       3.053  59.896  74.049  0.00  0.00    +0.000 NA
ATOM     10  C14 UNL     1       4.071  59.197  73.520  0.00  0.00    +0.000 C 
ATOM     11  C15 UNL     1       4.275  59.069  72.161  0.00  0.00    +0.000 C 
ATOM     12  C16 UNL     1       3.384  59.701  71.287  0.00  0.00    +0.000 C 
BRANCH  12  13
ATOM     13  C17 UNL     1       3.609  59.526  69.881  0.00  0.00    +0.000 C 
ATOM     14  N2  UNL     1       3.813  59.392  68.747  0.00  0.00    +0.000 NA
ENDBRANCH  12  13
ENDBRANCH   6   7
BRANCH   1  15
ATOM     15  C5  UNL     1       2.504  62.885  69.548  0.00  0.00    +0.000 C 
ATOM     16  O1  UNL     1       2.252  62.382  68.453  0.00  0.00    +0.000 OA
BRANCH  15  17
ATOM     17  C4  UNL     1       3.756  63.714  69.797  0.00  0.00    +0.000 C 
BRANCH  17  19
ATOM     18  C1  UNL     1       5.439  65.240  68.726  0.00  0.00    +0.000 C 
ATOM     19  C2  UNL     1       3.962  64.841  68.773  0.00  0.00    +0.000 C 
ATOM     20  C3  UNL     1       3.106  66.063  69.112  0.00  0.00    +0.000 C 
ENDBRANCH  17  19
ENDBRANCH  15  17
ENDBRANCH   1  15
TORSDOF 5
ENDMDL
MODEL 8
REMARK VINA RESULT:    -7.199      5.771      8.712
REMARK INTER + INTRA:         -10.552
REMARK INTER:                  -9.236
REMARK INTRA:                  -1.316
REMARK UNBOUND:                -1.249
REMARK  Name = ligantes_geracao2\Derivado_011.pdb
REMARK  8 active torsions:
REMARK  status: ('A' for Active; 'I' for Inactive)
REMARK    1  A    between atoms: C1_1  and  C2_2
REMARK    2  A    between atoms: C2_2  and  C3_3
REMARK    3  A    between atoms: C2_2  and  C4_4
REMARK    4  A    between atoms: C4_4  and  C5_5
REMARK    5  A    between atoms: C5_5  and  C6_7
REMARK    6  A    between atoms: C7_8  and  C8_9
REMARK    7  A    between atoms: C11_12  and  C12_13
REMARK    8  A    between atoms: C16_18  and  C17_19
REMARK                            x       y       z     vdW  Elec       q    Type
REMARK                         _______ _______ _______ _____ _____    ______ ____
ROOT
ATOM      1  C6  UNL     1       3.101  61.638  71.322  0.00  0.00    +0.000 C 
ATOM      2  C7  UNL     1       3.337  60.126  71.248  0.00  0.00    +0.000 C 
ATOM      3  C8  UNL     1       3.887  59.530  72.536  0.00  0.00    +0.000 C 
ATOM      4  C9  UNL     1       4.313  59.991  70.082  0.00  0.00    +0.000 C 
ATOM      5  C10 UNL     1       3.847  61.021  69.057  0.00  0.00    +0.000 C 
ATOM      6  C11 UNL     1       3.019  62.061  69.838  0.00  0.00    +0.000 C 
ENDROOT
BRANCH   6   7
ATOM      7  C12 UNL     1       3.375  63.512  69.585  0.00  0.00    +0.000 C 
ATOM      8  C13 UNL     1       4.718  63.830  69.376  0.00  0.00    +0.000 C 
ATOM      9  N1  UNL     1       5.187  65.075  69.132  0.00  0.00    +0.000 NA
ATOM     10  C14 UNL     1       4.288  66.074  69.092  0.00  0.00    +0.000 C 
ATOM     11  C15 UNL     1       2.934  65.881  69.275  0.00  0.00    +0.000 C 
ATOM     12  C16 UNL     1       2.469  64.585  69.521  0.00  0.00    +0.000 C 
BRANCH  12  13
ATOM     13  C17 UNL     1       1.053  64.415  69.681  0.00  0.00    +0.000 C 
ATOM     14  N2  UNL     1      -0.090  64.256  69.801  0.00  0.00    +0.000 NA
ENDBRANCH  12  13
ENDBRANCH   6   7
BRANCH   1  15
ATOM     15  C5  UNL     1       1.816  61.967  72.073  0.00  0.00    +0.000 C 
ATOM     16  O1  UNL     1       1.812  62.753  73.021  0.00  0.00    +0.000 OA
BRANCH  15  17
ATOM     17  C4  UNL     1       0.560  61.247  71.604  0.00  0.00    +0.000 C 
BRANCH  17  19
ATOM     18  C1  UNL     1      -0.171  59.115  72.712  0.00  0.00    +0.000 C 
ATOM     19  C2  UNL     1      -0.267  60.642  72.749  0.00  0.00    +0.000 C 
ATOM     20  C3  UNL     1      -1.733  61.071  72.662  0.00  0.00    +0.000 C 
ENDBRANCH  17  19
ENDBRANCH  15  17
ENDBRANCH   1  15
TORSDOF 5
ENDMDL
MODEL 9
REMARK VINA RESULT:    -6.999      6.876      9.652
REMARK INTER + INTRA:         -10.293
REMARK INTER:                  -9.330
REMARK INTRA:                  -0.964
REMARK UNBOUND:                -1.249
REMARK  Name = ligantes_geracao2\Derivado_011.pdb
REMARK  8 active torsions:
REMARK  status: ('A' for Active; 'I' for Inactive)
REMARK    1  A    between atoms: C1_1  and  C2_2
REMARK    2  A    between atoms: C2_2  and  C3_3
REMARK    3  A    between atoms: C2_2  and  C4_4
REMARK    4  A    between atoms: C4_4  and  C5_5
REMARK    5  A    between atoms: C5_5  and  C6_7
REMARK    6  A    between atoms: C7_8  and  C8_9
REMARK    7  A    between atoms: C11_12  and  C12_13
REMARK    8  A    between atoms: C16_18  and  C17_19
REMARK                            x       y       z     vdW  Elec       q    Type
REMARK                         _______ _______ _______ _____ _____    ______ ____
ROOT
ATOM      1  C6  UNL     1       2.185  60.597  71.458  0.00  0.00    +0.000 C 
ATOM      2  C7  UNL     1       1.967  59.087  71.315  0.00  0.00    +0.000 C 
ATOM      3  C8  UNL     1       2.388  58.291  72.542  0.00  0.00    +0.000 C 
ATOM      4  C9  UNL     1       2.799  58.739  70.084  0.00  0.00    +0.000 C 
ATOM      5  C10 UNL     1       2.598  59.913  69.129  0.00  0.00    +0.000 C 
ATOM      6  C11 UNL     1       2.151  61.104  70.000  0.00  0.00    +0.000 C 
ENDROOT
BRANCH   6   7
ATOM      7  C12 UNL     1       2.899  62.402  69.775  0.00  0.00    +0.000 C 
ATOM      8  C13 UNL     1       2.172  63.511  69.340  0.00  0.00    +0.000 C 
ATOM      9  N1  UNL     1       2.698  64.734  69.103  0.00  0.00    +0.000 NA
ATOM     10  C14 UNL     1       4.019  64.885  69.303  0.00  0.00    +0.000 C 
ATOM     11  C15 UNL     1       4.839  63.865  69.739  0.00  0.00    +0.000 C 
ATOM     12  C16 UNL     1       4.275  62.609  69.983  0.00  0.00    +0.000 C 
BRANCH  12  13
ATOM     13  C17 UNL     1       5.150  61.578  70.462  0.00  0.00    +0.000 C 
ATOM     14  N2  UNL     1       5.857  60.754  70.871  0.00  0.00    +0.000 NA
ENDBRANCH  12  13
ENDBRANCH   6   7
BRANCH   1  15
ATOM     15  C5  UNL     1       1.094  61.241  72.305  0.00  0.00    +0.000 C 
ATOM     16  O1  UNL     1       1.363  62.063  73.181  0.00  0.00    +0.000 OA
BRANCH  15  17
ATOM     17  C4  UNL     1      -0.331  60.788  72.022  0.00  0.00    +0.000 C 
BRANCH  17  19
ATOM     18  C1  UNL     1      -1.121  58.854  73.418  0.00  0.00    +0.000 C 
ATOM     19  C2  UNL     1      -1.109  60.379  73.283  0.00  0.00    +0.000 C 
ATOM     20  C3  UNL     1      -2.544  60.906  73.246  0.00  0.00    +0.000 C 
ENDBRANCH  17  19
ENDBRANCH  15  17
ENDBRANCH   1  15
TORSDOF 5
ENDMDL
