MODEL 1
REMARK VINA RESULT:    -8.723      0.000      0.000
REMARK INTER + INTRA:         -13.057
REMARK INTER:                 -11.273
REMARK INTRA:                  -1.784
REMARK UNBOUND:                -1.784
REMARK  Name = ligantes_geracao2\Derivado_019.pdb
REMARK  7 active torsions:
REMARK  status: ('A' for Active; 'I' for Inactive)
REMARK    1  A    between atoms: C1_1  and  C2_2
REMARK    2  A    between atoms: C2_2  and  C3_3
REMARK    3  A    between atoms: C3_3  and  C4_4
REMARK    4  A    between atoms: C3_3  and  C5_5
REMARK    5  A    between atoms: C5_5  and  C6_7
REMARK    6  A    between atoms: C10_12  and  C11_13
REMARK    7  A    between atoms: C15_18  and  C16_19
REMARK                            x       y       z     vdW  Elec       q    Type
REMARK                         _______ _______ _______ _____ _____    ______ ____
ROOT
ATOM      1  C6  UNL     1       3.400  66.791  66.894  0.00  0.00    +0.000 C 
ATOM      2  C7  UNL     1       3.596  67.106  68.366  0.00  0.00    +0.000 C 
ATOM      3  F1  UNL     1       3.053  66.124  69.128  0.00  0.00    +0.000 F 
ATOM      4  C8  UNL     1       2.828  68.398  68.565  0.00  0.00    +0.000 C 
ATOM      5  C9  UNL     1       3.129  69.204  67.308  0.00  0.00    +0.000 C 
ATOM      6  C10 UNL     1       3.436  68.170  66.206  0.00  0.00    +0.000 C 
ENDROOT
BRANCH   6   7
ATOM      7  C11 UNL     1       2.576  68.228  64.957  0.00  0.00    +0.000 C 
ATOM      8  C12 UNL     1       1.206  67.975  65.109  0.00  0.00    +0.000 C 
ATOM      9  N1  UNL     1       0.295  68.004  64.113  0.00  0.00    +0.000 NA
ATOM     10  C13 UNL     1       0.751  68.300  62.884  0.00  0.00    +0.000 C 
ATOM     11  C14 UNL     1       2.078  68.573  62.611  0.00  0.00    +0.000 C 
ATOM     12  C15 UNL     1       3.013  68.540  63.657  0.00  0.00    +0.000 C 
BRANCH  12  13
ATOM     13  C16 UNL     1       4.402  68.868  63.325  0.00  0.00    +0.000 C 
ATOM     14  C17 UNL     1       4.862  68.841  62.073  0.00  0.00    +0.000 C 
ATOM     15  F2  UNL     1       6.141  69.150  61.796  0.00  0.00    +0.000 F 
ENDBRANCH  12  13
ENDBRANCH   6   7
BRANCH   1  16
ATOM     16  C5  UNL     1       4.521  65.894  66.400  0.00  0.00    +0.000 C 
ATOM     17  O1  UNL     1       5.694  66.268  66.447  0.00  0.00    +0.000 OA
BRANCH  16  18
ATOM     18  C3  UNL     1       4.128  64.525  65.842  0.00  0.00    +0.000 C 
ATOM     19  C4  UNL     1       3.436  63.674  66.906  0.00  0.00    +0.000 C 
BRANCH  18  21
ATOM     20  C1  UNL     1       4.100  65.041  63.318  0.00  0.00    +0.000 C 
ATOM     21  C2  UNL     1       3.299  64.658  64.557  0.00  0.00    +0.000 C 
ENDBRANCH  18  21
ENDBRANCH  16  18
ENDBRANCH   1  16
TORSDOF 5
ENDMDL
MODEL 2
REMARK VINA RESULT:    -8.207      1.730      5.066
REMARK INTER + INTRA:         -12.390
REMARK INTER:                 -11.004
REMARK INTRA:                  -1.387
REMARK UNBOUND:                -1.784
REMARK  Name = ligantes_geracao2\Derivado_019.pdb
REMARK  7 active torsions:
REMARK  status: ('A' for Active; 'I' for Inactive)
REMARK    1  A    between atoms: C1_1  and  C2_2
REMARK    2  A    between atoms: C2_2  and  C3_3
REMARK    3  A    between atoms: C3_3  and  C4_4
REMARK    4  A    between atoms: C3_3  and  C5_5
REMARK    5  A    between atoms: C5_5  and  C6_7
REMARK    6  A    between atoms: C10_12  and  C11_13
REMARK    7  A    between atoms: C15_18  and  C16_19
REMARK                            x       y       z     vdW  Elec       q    Type
REMARK                         _______ _______ _______ _____ _____    ______ ____
ROOT
ATOM      1  C6  UNL     1       3.970  66.463  63.889  0.00  0.00    +0.000 C 
ATOM      2  C7  UNL     1       4.622  65.256  63.239  0.00  0.00    +0.000 C 
ATOM      3  F1  UNL     1       4.470  65.315  61.893  0.00  0.00    +0.000 F 
ATOM      4  C8  UNL     1       3.843  64.080  63.796  0.00  0.00    +0.000 C 
ATOM      5  C9  UNL     1       3.618  64.445  65.257  0.00  0.00    +0.000 C 
ATOM      6  C10 UNL     1       3.634  65.986  65.316  0.00  0.00    +0.000 C 
ENDROOT
BRANCH   6   7
ATOM      7  C11 UNL     1       2.400  66.660  65.887  0.00  0.00    +0.000 C 
ATOM      8  C12 UNL     1       1.312  66.846  65.023  0.00  0.00    +0.000 C 
ATOM      9  N1  UNL     1       0.133  67.408  65.367  0.00  0.00    +0.000 NA
ATOM     10  C13 UNL     1       0.006  67.815  66.640  0.00  0.00    +0.000 C 
ATOM     11  C14 UNL     1       1.006  67.680  67.586  0.00  0.00    +0.000 C 
ATOM     12  C15 UNL     1       2.224  67.094  67.214  0.00  0.00    +0.000 C 
BRANCH  12  13
ATOM     13  C16 UNL     1       3.242  66.943  68.257  0.00  0.00    +0.000 C 
ATOM     14  C17 UNL     1       3.520  65.764  68.817  0.00  0.00    +0.000 C 
ATOM     15  F2  UNL     1       4.461  65.652  69.771  0.00  0.00    +0.000 F 
ENDBRANCH  12  13
ENDBRANCH   6   7
BRANCH   1  16
ATOM     16  C5  UNL     1       4.940  67.631  63.909  0.00  0.00    +0.000 C 
ATOM     17  O1  UNL     1       5.947  67.602  64.618  0.00  0.00    +0.000 OA
BRANCH  16  18
ATOM     18  C3  UNL     1       4.608  68.832  63.022  0.00  0.00    +0.000 C 
ATOM     19  C4  UNL     1       5.752  69.141  62.058  0.00  0.00    +0.000 C 
BRANCH  18  21
ATOM     20  C1  UNL     1       3.356  68.550  60.788  0.00  0.00    +0.000 C 
ATOM     21  C2  UNL     1       3.262  68.647  62.306  0.00  0.00    +0.000 C 
ENDBRANCH  18  21
ENDBRANCH  16  18
ENDBRANCH   1  16
TORSDOF 5
ENDMDL
MODEL 3
REMARK VINA RESULT:    -8.122      2.418      3.640
REMARK INTER + INTRA:         -12.280
REMARK INTER:                 -11.262
REMARK INTRA:                  -1.018
REMARK UNBOUND:                -1.784
REMARK  Name = ligantes_geracao2\Derivado_019.pdb
REMARK  7 active torsions:
REMARK  status: ('A' for Active; 'I' for Inactive)
REMARK    1  A    between atoms: C1_1  and  C2_2
REMARK    2  A    between atoms: C2_2  and  C3_3
REMARK    3  A    between atoms: C3_3  and  C4_4
REMARK    4  A    between atoms: C3_3  and  C5_5
REMARK    5  A    between atoms: C5_5  and  C6_7
REMARK    6  A    between atoms: C10_12  and  C11_13
REMARK    7  A    between atoms: C15_18  and  C16_19
REMARK                            x       y       z     vdW  Elec       q    Type
REMARK                         _______ _______ _______ _____ _____    ______ ____
ROOT
ATOM      1  C6  UNL     1       3.410  65.130  68.213  0.00  0.00    +0.000 C 
ATOM      2  C7  UNL     1       2.755  66.061  69.218  0.00  0.00    +0.000 C 
ATOM      3  F1  UNL     1       1.673  65.460  69.771  0.00  0.00    +0.000 F 
ATOM      4  C8  UNL     1       2.316  67.246  68.380  0.00  0.00    +0.000 C 
ATOM      5  C9  UNL     1       3.468  67.457  67.406  0.00  0.00    +0.000 C 
ATOM      6  C10 UNL     1       4.141  66.078  67.242  0.00  0.00    +0.000 C 
ENDROOT
BRANCH   6   7
ATOM      7  C11 UNL     1       4.227  65.525  65.831  0.00  0.00    +0.000 C 
ATOM      8  C12 UNL     1       3.612  64.291  65.587  0.00  0.00    +0.000 C 
ATOM      9  N1  UNL     1       3.575  63.663  64.392  0.00  0.00    +0.000 NA
ATOM     10  C13 UNL     1       4.179  64.282  63.365  0.00  0.00    +0.000 C 
ATOM     11  C14 UNL     1       4.814  65.504  63.481  0.00  0.00    +0.000 C 
ATOM     12  C15 UNL     1       4.844  66.144  64.729  0.00  0.00    +0.000 C 
BRANCH  12  13
ATOM     13  C16 UNL     1       5.501  67.452  64.796  0.00  0.00    +0.000 C 
ATOM     14  C17 UNL     1       5.106  68.488  64.053  0.00  0.00    +0.000 C 
ATOM     15  F2  UNL     1       5.724  69.679  64.137  0.00  0.00    +0.000 F 
ENDBRANCH  12  13
ENDBRANCH   6   7
BRANCH   1  16
ATOM     16  C5  UNL     1       4.383  64.203  68.920  0.00  0.00    +0.000 C 
ATOM     17  O1  UNL     1       5.424  64.640  69.412  0.00  0.00    +0.000 OA
BRANCH  16  18
ATOM     18  C3  UNL     1       4.015  62.720  68.984  0.00  0.00    +0.000 C 
ATOM     19  C4  UNL     1       4.340  62.129  70.356  0.00  0.00    +0.000 C 
BRANCH  18  21
ATOM     20  C1  UNL     1       1.648  61.980  69.682  0.00  0.00    +0.000 C 
ATOM     21  C2  UNL     1       2.556  62.483  68.567  0.00  0.00    +0.000 C 
ENDBRANCH  18  21
ENDBRANCH  16  18
ENDBRANCH   1  16
TORSDOF 5
ENDMDL
MODEL 4
REMARK VINA RESULT:    -8.003      1.761      3.985
REMARK INTER + INTRA:         -12.127
REMARK INTER:                 -11.324
REMARK INTRA:                  -0.803
REMARK UNBOUND:                -1.784
REMARK  Name = ligantes_geracao2\Derivado_019.pdb
REMARK  7 active torsions:
REMARK  status: ('A' for Active; 'I' for Inactive)
REMARK    1  A    between atoms: C1_1  and  C2_2
REMARK    2  A    between atoms: C2_2  and  C3_3
REMARK    3  A    between atoms: C3_3  and  C4_4
REMARK    4  A    between atoms: C3_3  and  C5_5
REMARK    5  A    between atoms: C5_5  and  C6_7
REMARK    6  A    between atoms: C10_12  and  C11_13
REMARK    7  A    between atoms: C15_18  and  C16_19
REMARK                            x       y       z     vdW  Elec       q    Type
REMARK                         _______ _______ _______ _____ _____    ______ ____
ROOT
ATOM      1  C6  UNL     1       3.764  67.110  65.015  0.00  0.00    +0.000 C 
ATOM      2  C7  UNL     1       5.010  67.466  64.223  0.00  0.00    +0.000 C 
ATOM      3  F1  UNL     1       6.063  67.624  65.062  0.00  0.00    +0.000 F 
ATOM      4  C8  UNL     1       4.661  68.792  63.576  0.00  0.00    +0.000 C 
ATOM      5  C9  UNL     1       3.206  68.626  63.155  0.00  0.00    +0.000 C 
ATOM      6  C10 UNL     1       2.601  67.588  64.122  0.00  0.00    +0.000 C 
ENDROOT
BRANCH   6   7
ATOM      7  C11 UNL     1       1.387  68.026  64.920  0.00  0.00    +0.000 C 
ATOM      8  C12 UNL     1       0.144  67.976  64.276  0.00  0.00    +0.000 C 
ATOM      9  N1  UNL     1      -1.038  68.309  64.838  0.00  0.00    +0.000 NA
ATOM     10  C13 UNL     1      -1.005  68.718  66.117  0.00  0.00    +0.000 C 
ATOM     11  C14 UNL     1       0.160  68.805  66.858  0.00  0.00    +0.000 C 
ATOM     12  C15 UNL     1       1.379  68.455  66.260  0.00  0.00    +0.000 C 
BRANCH  12  13
ATOM     13  C16 UNL     1       2.582  68.532  67.093  0.00  0.00    +0.000 C 
ATOM     14  C17 UNL     1       2.612  68.072  68.345  0.00  0.00    +0.000 C 
ATOM     15  F2  UNL     1       3.730  68.152  69.088  0.00  0.00    +0.000 F 
ENDBRANCH  12  13
ENDBRANCH   6   7
BRANCH   1  16
ATOM     16  C5  UNL     1       3.705  65.611  65.247  0.00  0.00    +0.000 C 
ATOM     17  O1  UNL     1       3.576  64.832  64.301  0.00  0.00    +0.000 OA
BRANCH  16  18
ATOM     18  C3  UNL     1       3.805  65.122  66.692  0.00  0.00    +0.000 C 
ATOM     19  C4  UNL     1       3.627  63.606  66.776  0.00  0.00    +0.000 C 
BRANCH  18  21
ATOM     20  C1  UNL     1       5.272  65.164  68.809  0.00  0.00    +0.000 C 
ATOM     21  C2  UNL     1       5.100  65.605  67.361  0.00  0.00    +0.000 C 
ENDBRANCH  18  21
ENDBRANCH  16  18
ENDBRANCH   1  16
TORSDOF 5
ENDMDL
MODEL 5
REMARK VINA RESULT:    -7.878      1.860      3.300
REMARK INTER + INTRA:         -11.965
REMARK INTER:                 -10.727
REMARK INTRA:                  -1.238
REMARK UNBOUND:                -1.784
REMARK  Name = ligantes_geracao2\Derivado_019.pdb
REMARK  7 active torsions:
REMARK  status: ('A' for Active; 'I' for Inactive)
REMARK    1  A    between atoms: C1_1  and  C2_2
REMARK    2  A    between atoms: C2_2  and  C3_3
REMARK    3  A    between atoms: C3_3  and  C4_4
REMARK    4  A    between atoms: C3_3  and  C5_5
REMARK    5  A    between atoms: C5_5  and  C6_7
REMARK    6  A    between atoms: C10_12  and  C11_13
REMARK    7  A    between atoms: C15_18  and  C16_19
REMARK                            x       y       z     vdW  Elec       q    Type
REMARK                         _______ _______ _______ _____ _____    ______ ____
ROOT
ATOM      1  C6  UNL     1       3.604  67.515  65.246  0.00  0.00    +0.000 C 
ATOM      2  C7  UNL     1       4.578  66.448  65.712  0.00  0.00    +0.000 C 
ATOM      3  F1  UNL     1       5.771  67.013  66.021  0.00  0.00    +0.000 F 
ATOM      4  C8  UNL     1       4.731  65.544  64.505  0.00  0.00    +0.000 C 
ATOM      5  C9  UNL     1       3.321  65.449  63.934  0.00  0.00    +0.000 C 
ATOM      6  C10 UNL     1       2.606  66.749  64.353  0.00  0.00    +0.000 C 
ENDROOT
BRANCH   6   7
ATOM      7  C11 UNL     1       2.037  67.605  63.237  0.00  0.00    +0.000 C 
ATOM      8  C12 UNL     1       0.667  67.897  63.287  0.00  0.00    +0.000 C 
ATOM      9  N1  UNL     1       0.000  68.656  62.391  0.00  0.00    +0.000 NA
ATOM     10  C13 UNL     1       0.719  69.166  61.377  0.00  0.00    +0.000 C 
ATOM     11  C14 UNL     1       2.076  68.953  61.224  0.00  0.00    +0.000 C 
ATOM     12  C15 UNL     1       2.754  68.162  62.163  0.00  0.00    +0.000 C 
BRANCH  12  13
ATOM     13  C16 UNL     1       4.198  67.991  61.978  0.00  0.00    +0.000 C 
ATOM     14  C17 UNL     1       5.070  68.970  62.224  0.00  0.00    +0.000 C 
ATOM     15  F2  UNL     1       6.391  68.786  62.048  0.00  0.00    +0.000 F 
ENDBRANCH  12  13
ENDBRANCH   6   7
BRANCH   1  16
ATOM     16  C5  UNL     1       2.910  68.145  66.440  0.00  0.00    +0.000 C 
ATOM     17  O1  UNL     1       3.239  69.262  66.843  0.00  0.00    +0.000 OA
BRANCH  16  18
ATOM     18  C3  UNL     1       1.801  67.334  67.113  0.00  0.00    +0.000 C 
ATOM     19  C4  UNL     1       2.217  66.886  68.513  0.00  0.00    +0.000 C 
BRANCH  18  21
ATOM     20  C1  UNL     1      -0.737  67.263  66.675  0.00  0.00    +0.000 C 
ATOM     21  C2  UNL     1       0.466  68.093  67.106  0.00  0.00    +0.000 C 
ENDBRANCH  18  21
ENDBRANCH  16  18
ENDBRANCH   1  16
TORSDOF 5
ENDMDL
MODEL 6
REMARK VINA RESULT:    -7.691      2.310      3.635
REMARK INTER + INTRA:         -11.723
REMARK INTER:                 -10.854
REMARK INTRA:                  -0.869
REMARK UNBOUND:                -1.784
REMARK  Name = ligantes_geracao2\Derivado_019.pdb
REMARK  7 active torsions:
REMARK  status: ('A' for Active; 'I' for Inactive)
REMARK    1  A    between atoms: C1_1  and  C2_2
REMARK    2  A    between atoms: C2_2  and  C3_3
REMARK    3  A    between atoms: C3_3  and  C4_4
REMARK    4  A    between atoms: C3_3  and  C5_5
REMARK    5  A    between atoms: C5_5  and  C6_7
REMARK    6  A    between atoms: C10_12  and  C11_13
REMARK    7  A    between atoms: C15_18  and  C16_19
REMARK                            x       y       z     vdW  Elec       q    Type
REMARK                         _______ _______ _______ _____ _____    ______ ____
ROOT
ATOM      1  C6  UNL     1       3.893  66.827  65.349  0.00  0.00    +0.000 C 
ATOM      2  C7  UNL     1       5.222  67.157  64.694  0.00  0.00    +0.000 C 
ATOM      3  F1  UNL     1       6.172  67.348  65.642  0.00  0.00    +0.000 F 
ATOM      4  C8  UNL     1       4.952  68.457  63.963  0.00  0.00    +0.000 C 
ATOM      5  C9  UNL     1       3.555  68.272  63.383  0.00  0.00    +0.000 C 
ATOM      6  C10 UNL     1       2.842  67.269  64.312  0.00  0.00    +0.000 C 
ENDROOT
BRANCH   6   7
ATOM      7  C11 UNL     1       1.544  67.732  64.948  0.00  0.00    +0.000 C 
ATOM      8  C12 UNL     1       1.524  67.862  66.343  0.00  0.00    +0.000 C 
ATOM      9  N1  UNL     1       0.464  68.278  67.070  0.00  0.00    +0.000 NA
ATOM     10  C13 UNL     1      -0.651  68.590  66.389  0.00  0.00    +0.000 C 
ATOM     11  C14 UNL     1      -0.750  68.506  65.013  0.00  0.00    +0.000 C 
ATOM     12  C15 UNL     1       0.358  68.072  64.272  0.00  0.00    +0.000 C 
BRANCH  12  13
ATOM     13  C16 UNL     1       0.216  68.031  62.814  0.00  0.00    +0.000 C 
ATOM     14  C17 UNL     1       0.281  69.130  62.060  0.00  0.00    +0.000 C 
ATOM     15  F2  UNL     1       0.150  69.064  60.722  0.00  0.00    +0.000 F 
ENDBRANCH  12  13
ENDBRANCH   6   7
BRANCH   1  16
ATOM     16  C5  UNL     1       3.806  65.337  65.628  0.00  0.00    +0.000 C 
ATOM     17  O1  UNL     1       3.781  64.524  64.702  0.00  0.00    +0.000 OA
BRANCH  16  18
ATOM     18  C3  UNL     1       3.744  64.901  67.092  0.00  0.00    +0.000 C 
ATOM     19  C4  UNL     1       3.587  63.385  67.211  0.00  0.00    +0.000 C 
BRANCH  18  21
ATOM     20  C1  UNL     1       5.094  64.846  69.286  0.00  0.00    +0.000 C 
ATOM     21  C2  UNL     1       4.941  65.438  67.890  0.00  0.00    +0.000 C 
ENDBRANCH  18  21
ENDBRANCH  16  18
ENDBRANCH   1  16
TORSDOF 5
ENDMDL
MODEL 7
REMARK VINA RESULT:    -7.609      5.481      7.847
REMARK INTER + INTRA:         -11.617
REMARK INTER:                 -10.906
REMARK INTRA:                  -0.711
REMARK UNBOUND:                -1.784
REMARK  Name = ligantes_geracao2\Derivado_019.pdb
REMARK  7 active torsions:
REMARK  status: ('A' for Active; 'I' for Inactive)
REMARK    1  A    between atoms: C1_1  and  C2_2
REMARK    2  A    between atoms: C2_2  and  C3_3
REMARK    3  A    between atoms: C3_3  and  C4_4
REMARK    4  A    between atoms: C3_3  and  C5_5
REMARK    5  A    between atoms: C5_5  and  C6_7
REMARK    6  A    between atoms: C10_12  and  C11_13
REMARK    7  A    between atoms: C15_18  and  C16_19
REMARK                            x       y       z     vdW  Elec       q    Type
REMARK                         _______ _______ _______ _____ _____    ______ ____
ROOT
ATOM      1  C6  UNL     1       3.261  61.501  71.506  0.00  0.00    +0.000 C 
ATOM      2  C7  UNL     1       4.433  60.549  71.355  0.00  0.00    +0.000 C 
ATOM      3  F1  UNL     1       5.283  60.689  72.402  0.00  0.00    +0.000 F 
ATOM      4  C8  UNL     1       5.108  61.007  70.077  0.00  0.00    +0.000 C 
ATOM      5  C9  UNL     1       3.950  61.342  69.147  0.00  0.00    +0.000 C 
ATOM      6  C10 UNL     1       2.769  61.726  70.062  0.00  0.00    +0.000 C 
ENDROOT
BRANCH   6   7
ATOM      7  C11 UNL     1       2.163  63.101  69.853  0.00  0.00    +0.000 C 
ATOM      8  C12 UNL     1       0.774  63.218  69.989  0.00  0.00    +0.000 C 
ATOM      9  N1  UNL     1       0.072  64.364  69.857  0.00  0.00    +0.000 NA
ATOM     10  C13 UNL     1       0.775  65.473  69.573  0.00  0.00    +0.000 C 
ATOM     11  C14 UNL     1       2.149  65.485  69.420  0.00  0.00    +0.000 C 
ATOM     12  C15 UNL     1       2.863  64.286  69.561  0.00  0.00    +0.000 C 
BRANCH  12  13
ATOM     13  C16 UNL     1       4.321  64.353  69.423  0.00  0.00    +0.000 C 
ATOM     14  C17 UNL     1       4.917  65.158  68.542  0.00  0.00    +0.000 C 
ATOM     15  F2  UNL     1       6.257  65.203  68.437  0.00  0.00    +0.000 F 
ENDBRANCH  12  13
ENDBRANCH   6   7
BRANCH   1  16
ATOM     16  C5  UNL     1       2.182  60.866  72.367  0.00  0.00    +0.000 C 
ATOM     17  O1  UNL     1       2.158  61.053  73.584  0.00  0.00    +0.000 OA
BRANCH  16  18
ATOM     18  C3  UNL     1       1.147  59.992  71.659  0.00  0.00    +0.000 C 
ATOM     19  C4  UNL     1       1.674  58.573  71.448  0.00  0.00    +0.000 C 
BRANCH  18  21
ATOM     20  C1  UNL     1      -1.036  61.272  72.139  0.00  0.00    +0.000 C 
ATOM     21  C2  UNL     1      -0.205  60.020  72.387  0.00  0.00    +0.000 C 
ENDBRANCH  18  21
ENDBRANCH  16  18
ENDBRANCH   1  16
TORSDOF 5
ENDMDL
MODEL 8
REMARK VINA RESULT:    -7.594      2.792      3.822
REMARK INTER + INTRA:         -11.598
REMARK INTER:                 -10.282
REMARK INTRA:                  -1.315
REMARK UNBOUND:                -1.784
REMARK  Name = ligantes_geracao2\Derivado_019.pdb
REMARK  7 active torsions:
REMARK  status: ('A' for Active; 'I' for Inactive)
REMARK    1  A    between atoms: C1_1  and  C2_2
REMARK    2  A    between atoms: C2_2  and  C3_3
REMARK    3  A    between atoms: C3_3  and  C4_4
REMARK    4  A    between atoms: C3_3  and  C5_5
REMARK    5  A    between atoms: C5_5  and  C6_7
REMARK    6  A    between atoms: C10_12  and  C11_13
REMARK    7  A    between atoms: C15_18  and  C16_19
REMARK                            x       y       z     vdW  Elec       q    Type
REMARK                         _______ _______ _______ _____ _____    ______ ____
ROOT
ATOM      1  C6  UNL     1       2.076  65.226  68.554  0.00  0.00    +0.000 C 
ATOM      2  C7  UNL     1       2.203  64.202  69.668  0.00  0.00    +0.000 C 
ATOM      3  F1  UNL     1       2.598  63.009  69.159  0.00  0.00    +0.000 F 
ATOM      4  C8  UNL     1       0.794  64.088  70.217  0.00  0.00    +0.000 C 
ATOM      5  C9  UNL     1       0.279  65.522  70.213  0.00  0.00    +0.000 C 
ATOM      6  C10 UNL     1       1.057  66.248  69.097  0.00  0.00    +0.000 C 
ENDROOT
BRANCH   6   7
ATOM      7  C11 UNL     1       0.232  66.896  68.001  0.00  0.00    +0.000 C 
ATOM      8  C12 UNL     1      -1.093  66.463  67.855  0.00  0.00    +0.000 C 
ATOM      9  N1  UNL     1      -1.972  66.942  66.948  0.00  0.00    +0.000 NA
ATOM     10  C13 UNL     1      -1.529  67.910  66.129  0.00  0.00    +0.000 C 
ATOM     11  C14 UNL     1      -0.245  68.422  66.181  0.00  0.00    +0.000 C 
ATOM     12  C15 UNL     1       0.656  67.914  67.128  0.00  0.00    +0.000 C 
BRANCH  12  13
ATOM     13  C16 UNL     1       1.994  68.510  67.167  0.00  0.00    +0.000 C 
ATOM     14  C17 UNL     1       2.688  68.778  66.059  0.00  0.00    +0.000 C 
ATOM     15  F2  UNL     1       3.914  69.328  66.123  0.00  0.00    +0.000 F 
ENDBRANCH  12  13
ENDBRANCH   6   7
BRANCH   1  16
ATOM     16  C5  UNL     1       3.423  65.874  68.287  0.00  0.00    +0.000 C 
ATOM     17  O1  UNL     1       3.852  66.762  69.025  0.00  0.00    +0.000 OA
BRANCH  16  18
ATOM     18  C3  UNL     1       4.208  65.382  67.070  0.00  0.00    +0.000 C 
ATOM     19  C4  UNL     1       3.294  65.204  65.858  0.00  0.00    +0.000 C 
BRANCH  18  21
ATOM     20  C1  UNL     1       5.613  66.622  65.303  0.00  0.00    +0.000 C 
ATOM     21  C2  UNL     1       5.414  66.286  66.775  0.00  0.00    +0.000 C 
ENDBRANCH  18  21
ENDBRANCH  16  18
ENDBRANCH   1  16
TORSDOF 5
ENDMDL
MODEL 9
REMARK VINA RESULT:    -7.315      2.489      4.049
REMARK INTER + INTRA:         -11.237
REMARK INTER:                  -9.754
REMARK INTRA:                  -1.483
REMARK UNBOUND:                -1.784
REMARK  Name = ligantes_geracao2\Derivado_019.pdb
REMARK  7 active torsions:
REMARK  status: ('A' for Active; 'I' for Inactive)
REMARK    1  A    between atoms: C1_1  and  C2_2
REMARK    2  A    between atoms: C2_2  and  C3_3
REMARK    3  A    between atoms: C3_3  and  C4_4
REMARK    4  A    between atoms: C3_3  and  C5_5
REMARK    5  A    between atoms: C5_5  and  C6_7
REMARK    6  A    between atoms: C10_12  and  C11_13
REMARK    7  A    between atoms: C15_18  and  C16_19
REMARK                            x       y       z     vdW  Elec       q    Type
REMARK                         _______ _______ _______ _____ _____    ______ ____
ROOT
ATOM      1  C6  UNL     1       3.753  66.455  65.839  0.00  0.00    +0.000 C 
ATOM      2  C7  UNL     1       3.826  65.094  66.508  0.00  0.00    +0.000 C 
ATOM      3  F1  UNL     1       4.938  65.015  67.280  0.00  0.00    +0.000 F 
ATOM      4  C8  UNL     1       3.935  64.125  65.346  0.00  0.00    +0.000 C 
ATOM      5  C9  UNL     1       2.979  64.691  64.303  0.00  0.00    +0.000 C 
ATOM      6  C10 UNL     1       2.907  66.208  64.574  0.00  0.00    +0.000 C 
ENDROOT
BRANCH   6   7
ATOM      7  C11 UNL     1       3.283  67.125  63.425  0.00  0.00    +0.000 C 
ATOM      8  C12 UNL     1       4.632  67.164  63.050  0.00  0.00    +0.000 C 
ATOM      9  N1  UNL     1       5.138  67.906  62.042  0.00  0.00    +0.000 NA
ATOM     10  C13 UNL     1       4.268  68.661  61.351  0.00  0.00    +0.000 C 
ATOM     11  C14 UNL     1       2.913  68.702  61.624  0.00  0.00    +0.000 C 
ATOM     12  C15 UNL     1       2.403  67.925  62.674  0.00  0.00    +0.000 C 
BRANCH  12  13
ATOM     13  C16 UNL     1       0.956  67.976  62.905  0.00  0.00    +0.000 C 
ATOM     14  C17 UNL     1       0.146  68.754  62.185  0.00  0.00    +0.000 C 
ATOM     15  F2  UNL     1      -1.179  68.780  62.415  0.00  0.00    +0.000 F 
ENDBRANCH  12  13
ENDBRANCH   6   7
BRANCH   1  16
ATOM     16  C5  UNL     1       3.085  67.455  66.767  0.00  0.00    +0.000 C 
ATOM     17  O1  UNL     1       3.583  68.566  66.957  0.00  0.00    +0.000 OA
BRANCH  16  18
ATOM     18  C3  UNL     1       1.787  67.020  67.447  0.00  0.00    +0.000 C 
ATOM     19  C4  UNL     1       2.009  66.740  68.933  0.00  0.00    +0.000 C 
BRANCH  18  21
ATOM     20  C1  UNL     1      -0.433  67.541  66.248  0.00  0.00    +0.000 C 
ATOM     21  C2  UNL     1       0.655  68.028  67.197  0.00  0.00    +0.000 C 
ENDBRANCH  18  21
ENDBRANCH  16  18
ENDBRANCH   1  16
TORSDOF 5
ENDMDL
