MODEL 1
REMARK VINA RESULT:    -9.735      0.000      0.000
REMARK INTER + INTRA:         -12.414
REMARK INTER:                 -12.580
REMARK INTRA:                   0.167
REMARK UNBOUND:                 0.167
REMARK  Name = ligantes_geracao2\Derivado_008.pdb
REMARK  9 active torsions:
REMARK  status: ('A' for Active; 'I' for Inactive)
REMARK    1  A    between atoms: C1_1  and  C2_2
REMARK    2  A    between atoms: C2_2  and  C3_4
REMARK    3  A    between atoms: C7_9  and  C8_10
REMARK    4  A    between atoms: C11_13  and  C12_14
REMARK    5  A    between atoms: C13_15  and  C14_16
REMARK    6  A    between atoms: C14_16  and  C15_18
REMARK    7  A    between atoms: C15_18  and  C16_19
REMARK    8  A    between atoms: C16_19  and  C17_20
REMARK    9  A    between atoms: C16_19  and  C18_21
REMARK                            x       y       z     vdW  Elec       q    Type
REMARK                         _______ _______ _______ _____ _____    ______ ____
ROOT
ATOM      1  C8  UNL     1       4.188  68.275  65.379  0.00  0.00    +0.000 C 
ATOM      2  C9  UNL     1       5.421  68.218  64.452  0.00  0.00    +0.000 C 
ATOM      3  C10 UNL     1       4.912  68.552  63.045  0.00  0.00    +0.000 C 
ATOM      4  C11 UNL     1       3.402  68.774  63.180  0.00  0.00    +0.000 C 
ATOM      5  C12 UNL     1       2.628  68.447  61.912  0.00  0.00    +0.000 C 
ATOM      6  C13 UNL     1       2.996  67.994  64.440  0.00  0.00    +0.000 C 
ENDROOT
BRANCH   1  12
ATOM      7  C3  UNL     1       3.348  67.667  67.726  0.00  0.00    +0.000 C 
ATOM      8  C4  UNL     1       3.435  66.899  68.891  0.00  0.00    +0.000 C 
ATOM      9  C5  UNL     1       4.417  65.933  68.960  0.00  0.00    +0.000 C 
ATOM     10  N1  UNL     1       5.285  65.693  67.962  0.00  0.00    +0.000 NA
ATOM     11  C6  UNL     1       5.176  66.448  66.843  0.00  0.00    +0.000 C 
ATOM     12  C7  UNL     1       4.240  67.463  66.656  0.00  0.00    +0.000 C 
BRANCH   7  14
ATOM     13  C1  UNL     1       2.532  70.058  68.168  0.00  0.00    +0.000 C 
ATOM     14  C2  UNL     1       2.256  68.669  67.654  0.00  0.00    +0.000 C 
ATOM     15  O1  UNL     1       1.159  68.344  67.208  0.00  0.00    +0.000 OA
ENDBRANCH   7  14
ENDBRANCH   1  12
BRANCH   6  16
ATOM     16  C14 UNL     1       2.774  66.498  64.216  0.00  0.00    +0.000 C 
ATOM     17  O2  UNL     1       1.678  65.963  64.399  0.00  0.00    +0.000 OA
BRANCH  16  18
ATOM     18  C15 UNL     1       3.958  65.690  63.715  0.00  0.00    +0.000 C 
BRANCH  18  19
ATOM     19  C16 UNL     1       3.720  64.180  63.822  0.00  0.00    +0.000 C 
ATOM     20  C17 UNL     1       4.816  63.389  63.107  0.00  0.00    +0.000 C 
ATOM     21  C18 UNL     1       3.655  63.763  65.293  0.00  0.00    +0.000 C 
ENDBRANCH  18  19
ENDBRANCH  16  18
ENDBRANCH   6  16
TORSDOF 5
ENDMDL
MODEL 2
REMARK VINA RESULT:    -9.119      1.966      4.842
REMARK INTER + INTRA:         -11.618
REMARK INTER:                 -11.592
REMARK INTRA:                  -0.025
REMARK UNBOUND:                 0.167
REMARK  Name = ligantes_geracao2\Derivado_008.pdb
REMARK  9 active torsions:
REMARK  status: ('A' for Active; 'I' for Inactive)
REMARK    1  A    between atoms: C1_1  and  C2_2
REMARK    2  A    between atoms: C2_2  and  C3_4
REMARK    3  A    between atoms: C7_9  and  C8_10
REMARK    4  A    between atoms: C11_13  and  C12_14
REMARK    5  A    between atoms: C13_15  and  C14_16
REMARK    6  A    between atoms: C14_16  and  C15_18
REMARK    7  A    between atoms: C15_18  and  C16_19
REMARK    8  A    between atoms: C16_19  and  C17_20
REMARK    9  A    between atoms: C16_19  and  C18_21
REMARK                            x       y       z     vdW  Elec       q    Type
REMARK                         _______ _______ _______ _____ _____    ______ ____
ROOT
ATOM      1  C8  UNL     1       2.429  67.452  65.020  0.00  0.00    +0.000 C 
ATOM      2  C9  UNL     1       1.232  66.976  65.869  0.00  0.00    +0.000 C 
ATOM      3  C10 UNL     1       1.074  68.004  66.996  0.00  0.00    +0.000 C 
ATOM      4  C11 UNL     1       2.187  69.036  66.790  0.00  0.00    +0.000 C 
ATOM      5  C12 UNL     1       2.638  69.704  68.080  0.00  0.00    +0.000 C 
ATOM      6  C13 UNL     1       3.276  68.295  65.997  0.00  0.00    +0.000 C 
ENDROOT
BRANCH   1  12
ATOM      7  C3  UNL     1       3.914  66.710  63.063  0.00  0.00    +0.000 C 
ATOM      8  C4  UNL     1       4.584  65.710  62.351  0.00  0.00    +0.000 C 
ATOM      9  C5  UNL     1       4.503  64.415  62.820  0.00  0.00    +0.000 C 
ATOM     10  N1  UNL     1       3.820  64.074  63.926  0.00  0.00    +0.000 NA
ATOM     11  C6  UNL     1       3.184  65.062  64.599  0.00  0.00    +0.000 C 
ATOM     12  C7  UNL     1       3.175  66.404  64.222  0.00  0.00    +0.000 C 
BRANCH   7  14
ATOM     13  C1  UNL     1       5.240  68.905  63.033  0.00  0.00    +0.000 C 
ATOM     14  C2  UNL     1       4.053  68.103  62.569  0.00  0.00    +0.000 C 
ATOM     15  O1  UNL     1       3.197  68.574  61.827  0.00  0.00    +0.000 OA
ENDBRANCH   7  14
ENDBRANCH   1  12
BRANCH   6  16
ATOM     16  C14 UNL     1       4.207  67.434  66.850  0.00  0.00    +0.000 C 
ATOM     17  O2  UNL     1       5.319  67.079  66.453  0.00  0.00    +0.000 OA
BRANCH  16  18
ATOM     18  C15 UNL     1       3.724  67.061  68.241  0.00  0.00    +0.000 C 
BRANCH  18  19
ATOM     19  C16 UNL     1       3.723  65.545  68.469  0.00  0.00    +0.000 C 
ATOM     20  C17 UNL     1       4.975  65.093  69.221  0.00  0.00    +0.000 C 
ATOM     21  C18 UNL     1       2.472  65.134  69.249  0.00  0.00    +0.000 C 
ENDBRANCH  18  19
ENDBRANCH  16  18
ENDBRANCH   6  16
TORSDOF 5
ENDMDL
MODEL 3
REMARK VINA RESULT:    -9.047      1.874      5.446
REMARK INTER + INTRA:         -11.525
REMARK INTER:                 -10.544
REMARK INTRA:                  -0.981
REMARK UNBOUND:                 0.167
REMARK  Name = ligantes_geracao2\Derivado_008.pdb
REMARK  9 active torsions:
REMARK  status: ('A' for Active; 'I' for Inactive)
REMARK    1  A    between atoms: C1_1  and  C2_2
REMARK    2  A    between atoms: C2_2  and  C3_4
REMARK    3  A    between atoms: C7_9  and  C8_10
REMARK    4  A    between atoms: C11_13  and  C12_14
REMARK    5  A    between atoms: C13_15  and  C14_16
REMARK    6  A    between atoms: C14_16  and  C15_18
REMARK    7  A    between atoms: C15_18  and  C16_19
REMARK    8  A    between atoms: C16_19  and  C17_20
REMARK    9  A    between atoms: C16_19  and  C18_21
REMARK                            x       y       z     vdW  Elec       q    Type
REMARK                         _______ _______ _______ _____ _____    ______ ____
ROOT
ATOM      1  C8  UNL     1       4.589  65.614  66.574  0.00  0.00    +0.000 C 
ATOM      2  C9  UNL     1       5.688  65.887  67.623  0.00  0.00    +0.000 C 
ATOM      3  C10 UNL     1       5.255  65.148  68.895  0.00  0.00    +0.000 C 
ATOM      4  C11 UNL     1       3.915  64.484  68.567  0.00  0.00    +0.000 C 
ATOM      5  C12 UNL     1       3.018  64.299  69.782  0.00  0.00    +0.000 C 
ATOM      6  C13 UNL     1       3.329  65.316  67.415  0.00  0.00    +0.000 C 
ENDROOT
BRANCH   1  12
ATOM      7  C3  UNL     1       4.033  66.268  64.156  0.00  0.00    +0.000 C 
ATOM      8  C4  UNL     1       3.899  67.234  63.154  0.00  0.00    +0.000 C 
ATOM      9  C5  UNL     1       4.160  68.548  63.481  0.00  0.00    +0.000 C 
ATOM     10  N1  UNL     1       4.526  68.942  64.713  0.00  0.00    +0.000 NA
ATOM     11  C6  UNL     1       4.644  67.987  65.666  0.00  0.00    +0.000 C 
ATOM     12  C7  UNL     1       4.425  66.626  65.460  0.00  0.00    +0.000 C 
BRANCH   7  14
ATOM     13  C1  UNL     1       4.718  64.078  63.011  0.00  0.00    +0.000 C 
ATOM     14  C2  UNL     1       3.703  64.866  63.796  0.00  0.00    +0.000 C 
ATOM     15  O1  UNL     1       2.617  64.394  64.117  0.00  0.00    +0.000 OA
ENDBRANCH   7  14
ENDBRANCH   1  12
BRANCH   6  16
ATOM     16  C14 UNL     1       2.609  66.591  67.855  0.00  0.00    +0.000 C 
ATOM     17  O2  UNL     1       3.123  67.398  68.633  0.00  0.00    +0.000 OA
BRANCH  16  18
ATOM     18  C15 UNL     1       1.236  66.850  67.262  0.00  0.00    +0.000 C 
BRANCH  18  19
ATOM     19  C16 UNL     1       1.188  68.150  66.451  0.00  0.00    +0.000 C 
ATOM     20  C17 UNL     1       0.719  67.898  65.018  0.00  0.00    +0.000 C 
ATOM     21  C18 UNL     1       0.260  69.158  67.132  0.00  0.00    +0.000 C 
ENDBRANCH  18  19
ENDBRANCH  16  18
ENDBRANCH   6  16
TORSDOF 5
ENDMDL
MODEL 4
REMARK VINA RESULT:    -8.988      1.646      2.612
REMARK INTER + INTRA:         -11.449
REMARK INTER:                 -10.533
REMARK INTRA:                  -0.915
REMARK UNBOUND:                 0.167
REMARK  Name = ligantes_geracao2\Derivado_008.pdb
REMARK  9 active torsions:
REMARK  status: ('A' for Active; 'I' for Inactive)
REMARK    1  A    between atoms: C1_1  and  C2_2
REMARK    2  A    between atoms: C2_2  and  C3_4
REMARK    3  A    between atoms: C7_9  and  C8_10
REMARK    4  A    between atoms: C11_13  and  C12_14
REMARK    5  A    between atoms: C13_15  and  C14_16
REMARK    6  A    between atoms: C14_16  and  C15_18
REMARK    7  A    between atoms: C15_18  and  C16_19
REMARK    8  A    between atoms: C16_19  and  C17_20
REMARK    9  A    between atoms: C16_19  and  C18_21
REMARK                            x       y       z     vdW  Elec       q    Type
REMARK                         _______ _______ _______ _____ _____    ______ ____
ROOT
ATOM      1  C8  UNL     1       4.256  67.795  65.989  0.00  0.00    +0.000 C 
ATOM      2  C9  UNL     1       5.558  67.314  65.313  0.00  0.00    +0.000 C 
ATOM      3  C10 UNL     1       5.555  67.920  63.905  0.00  0.00    +0.000 C 
ATOM      4  C11 UNL     1       4.252  68.717  63.786  0.00  0.00    +0.000 C 
ATOM      5  C12 UNL     1       3.731  68.816  62.361  0.00  0.00    +0.000 C 
ATOM      6  C13 UNL     1       3.300  68.079  64.811  0.00  0.00    +0.000 C 
ENDROOT
BRANCH   1  12
ATOM      7  C3  UNL     1       2.703  67.401  67.993  0.00  0.00    +0.000 C 
ATOM      8  C4  UNL     1       2.221  66.583  69.021  0.00  0.00    +0.000 C 
ATOM      9  C5  UNL     1       2.749  65.316  69.142  0.00  0.00    +0.000 C 
ATOM     10  N1  UNL     1       3.694  64.829  68.320  0.00  0.00    +0.000 NA
ATOM     11  C6  UNL     1       4.140  65.639  67.330  0.00  0.00    +0.000 C 
ATOM     12  C7  UNL     1       3.700  66.944  67.111  0.00  0.00    +0.000 C 
BRANCH   7  14
ATOM     13  C1  UNL     1       2.827  69.926  68.421  0.00  0.00    +0.000 C 
ATOM     14  C2  UNL     1       2.088  68.744  67.850  0.00  0.00    +0.000 C 
ATOM     15  O1  UNL     1       0.996  68.860  67.302  0.00  0.00    +0.000 OA
ENDBRANCH   7  14
ENDBRANCH   1  12
BRANCH   6  16
ATOM     16  C14 UNL     1       2.593  66.816  64.319  0.00  0.00    +0.000 C 
ATOM     17  O2  UNL     1       3.213  65.854  63.860  0.00  0.00    +0.000 OA
BRANCH  16  18
ATOM     18  C15 UNL     1       1.081  66.772  64.455  0.00  0.00    +0.000 C 
BRANCH  18  19
ATOM     19  C16 UNL     1       0.421  68.092  64.040  0.00  0.00    +0.000 C 
ATOM     20  C17 UNL     1       0.235  68.171  62.524  0.00  0.00    +0.000 C 
ATOM     21  C18 UNL     1      -0.932  68.242  64.737  0.00  0.00    +0.000 C 
ENDBRANCH  18  19
ENDBRANCH  16  18
ENDBRANCH   6  16
TORSDOF 5
ENDMDL
MODEL 5
REMARK VINA RESULT:    -7.613      7.206     10.282
REMARK INTER + INTRA:          -9.671
REMARK INTER:                  -8.621
REMARK INTRA:                  -1.051
REMARK UNBOUND:                 0.167
REMARK  Name = ligantes_geracao2\Derivado_008.pdb
REMARK  9 active torsions:
REMARK  status: ('A' for Active; 'I' for Inactive)
REMARK    1  A    between atoms: C1_1  and  C2_2
REMARK    2  A    between atoms: C2_2  and  C3_4
REMARK    3  A    between atoms: C7_9  and  C8_10
REMARK    4  A    between atoms: C11_13  and  C12_14
REMARK    5  A    between atoms: C13_15  and  C14_16
REMARK    6  A    between atoms: C14_16  and  C15_18
REMARK    7  A    between atoms: C15_18  and  C16_19
REMARK    8  A    between atoms: C16_19  and  C17_20
REMARK    9  A    between atoms: C16_19  and  C18_21
REMARK                            x       y       z     vdW  Elec       q    Type
REMARK                         _______ _______ _______ _____ _____    ______ ____
ROOT
ATOM      1  C8  UNL     1       1.662  59.695  71.349  0.00  0.00    +0.000 C 
ATOM      2  C9  UNL     1       1.702  58.253  71.897  0.00  0.00    +0.000 C 
ATOM      3  C10 UNL     1       0.364  58.032  72.613  0.00  0.00    +0.000 C 
ATOM      4  C11 UNL     1      -0.410  59.348  72.485  0.00  0.00    +0.000 C 
ATOM      5  C12 UNL     1      -1.385  59.589  73.627  0.00  0.00    +0.000 C 
ATOM      6  C13 UNL     1       0.667  60.425  72.276  0.00  0.00    +0.000 C 
ENDROOT
BRANCH   1  12
ATOM      7  C3  UNL     1       3.143  61.453  70.209  0.00  0.00    +0.000 C 
ATOM      8  C4  UNL     1       4.388  62.060  70.018  0.00  0.00    +0.000 C 
ATOM      9  C5  UNL     1       5.459  61.586  70.746  0.00  0.00    +0.000 C 
ATOM     10  N1  UNL     1       5.361  60.579  71.632  0.00  0.00    +0.000 NA
ATOM     11  C6  UNL     1       4.142  60.011  71.800  0.00  0.00    +0.000 C 
ATOM     12  C7  UNL     1       2.988  60.387  71.115  0.00  0.00    +0.000 C 
BRANCH   7  14
ATOM     13  C1  UNL     1       1.233  63.157  70.057  0.00  0.00    +0.000 C 
ATOM     14  C2  UNL     1       1.994  62.007  69.451  0.00  0.00    +0.000 C 
ATOM     15  O1  UNL     1       1.676  61.509  68.375  0.00  0.00    +0.000 OA
ENDBRANCH   7  14
ENDBRANCH   1  12
BRANCH   6  16
ATOM     16  C14 UNL     1       1.327  60.918  73.564  0.00  0.00    +0.000 C 
ATOM     17  O2  UNL     1       1.849  60.146  74.371  0.00  0.00    +0.000 OA
BRANCH  16  18
ATOM     18  C15 UNL     1       1.353  62.419  73.797  0.00  0.00    +0.000 C 
BRANCH  18  19
ATOM     19  C16 UNL     1      -0.055  63.016  73.900  0.00  0.00    +0.000 C 
ATOM     20  C17 UNL     1      -0.514  63.117  75.355  0.00  0.00    +0.000 C 
ATOM     21  C18 UNL     1      -0.085  64.400  73.249  0.00  0.00    +0.000 C 
ENDBRANCH  18  19
ENDBRANCH  16  18
ENDBRANCH   6  16
TORSDOF 5
ENDMDL
MODEL 6
REMARK VINA RESULT:    -7.542      5.543      8.129
REMARK INTER + INTRA:          -9.579
REMARK INTER:                 -10.579
REMARK INTRA:                   1.000
REMARK UNBOUND:                 0.167
REMARK  Name = ligantes_geracao2\Derivado_008.pdb
REMARK  9 active torsions:
REMARK  status: ('A' for Active; 'I' for Inactive)
REMARK    1  A    between atoms: C1_1  and  C2_2
REMARK    2  A    between atoms: C2_2  and  C3_4
REMARK    3  A    between atoms: C7_9  and  C8_10
REMARK    4  A    between atoms: C11_13  and  C12_14
REMARK    5  A    between atoms: C13_15  and  C14_16
REMARK    6  A    between atoms: C14_16  and  C15_18
REMARK    7  A    between atoms: C15_18  and  C16_19
REMARK    8  A    between atoms: C16_19  and  C17_20
REMARK    9  A    between atoms: C16_19  and  C18_21
REMARK                            x       y       z     vdW  Elec       q    Type
REMARK                         _______ _______ _______ _____ _____    ______ ____
ROOT
ATOM      1  C8  UNL     1       3.400  62.339  69.473  0.00  0.00    +0.000 C 
ATOM      2  C9  UNL     1       4.742  62.378  70.234  0.00  0.00    +0.000 C 
ATOM      3  C10 UNL     1       5.098  60.920  70.545  0.00  0.00    +0.000 C 
ATOM      4  C11 UNL     1       3.954  60.072  69.980  0.00  0.00    +0.000 C 
ATOM      5  C12 UNL     1       3.747  58.762  70.725  0.00  0.00    +0.000 C 
ATOM      6  C13 UNL     1       2.744  61.019  69.930  0.00  0.00    +0.000 C 
ENDROOT
BRANCH   1  12
ATOM      7  C3  UNL     1       2.870  64.783  68.897  0.00  0.00    +0.000 C 
ATOM      8  C4  UNL     1       2.039  65.904  68.986  0.00  0.00    +0.000 C 
ATOM      9  C5  UNL     1       0.874  65.792  69.715  0.00  0.00    +0.000 C 
ATOM     10  N1  UNL     1       0.499  64.659  70.335  0.00  0.00    +0.000 NA
ATOM     11  C6  UNL     1       1.319  63.587  70.229  0.00  0.00    +0.000 C 
ATOM     12  C7  UNL     1       2.529  63.576  69.536  0.00  0.00    +0.000 C 
BRANCH   7  14
ATOM     13  C1  UNL     1       5.343  65.439  68.726  0.00  0.00    +0.000 C 
ATOM     14  C2  UNL     1       4.095  64.910  68.069  0.00  0.00    +0.000 C 
ATOM     15  O1  UNL     1       4.060  64.611  66.879  0.00  0.00    +0.000 OA
ENDBRANCH   7  14
ENDBRANCH   1  12
BRANCH   6  16
ATOM     16  C14 UNL     1       2.001  61.169  71.258  0.00  0.00    +0.000 C 
ATOM     17  O2  UNL     1       2.544  61.628  72.265  0.00  0.00    +0.000 OA
BRANCH  16  18
ATOM     18  C15 UNL     1       0.538  60.762  71.282  0.00  0.00    +0.000 C 
BRANCH  18  19
ATOM     19  C16 UNL     1       0.154  60.045  72.580  0.00  0.00    +0.000 C 
ATOM     20  C17 UNL     1      -1.322  60.256  72.920  0.00  0.00    +0.000 C 
ATOM     21  C18 UNL     1       0.450  58.549  72.460  0.00  0.00    +0.000 C 
ENDBRANCH  18  19
ENDBRANCH  16  18
ENDBRANCH   6  16
TORSDOF 5
ENDMDL
MODEL 7
REMARK VINA RESULT:    -6.985      7.843     10.414
REMARK INTER + INTRA:          -8.860
REMARK INTER:                  -7.832
REMARK INTRA:                  -1.028
REMARK UNBOUND:                 0.167
REMARK  Name = ligantes_geracao2\Derivado_008.pdb
REMARK  9 active torsions:
REMARK  status: ('A' for Active; 'I' for Inactive)
REMARK    1  A    between atoms: C1_1  and  C2_2
REMARK    2  A    between atoms: C2_2  and  C3_4
REMARK    3  A    between atoms: C7_9  and  C8_10
REMARK    4  A    between atoms: C11_13  and  C12_14
REMARK    5  A    between atoms: C13_15  and  C14_16
REMARK    6  A    between atoms: C14_16  and  C15_18
REMARK    7  A    between atoms: C15_18  and  C16_19
REMARK    8  A    between atoms: C16_19  and  C17_20
REMARK    9  A    between atoms: C16_19  and  C18_21
REMARK                            x       y       z     vdW  Elec       q    Type
REMARK                         _______ _______ _______ _____ _____    ______ ____
ROOT
ATOM      1  C8  UNL     1       0.381  60.071  72.069  0.00  0.00    +0.000 C 
ATOM      2  C9  UNL     1      -0.815  60.926  72.537  0.00  0.00    +0.000 C 
ATOM      3  C10 UNL     1      -0.903  62.105  71.560  0.00  0.00    +0.000 C 
ATOM      4  C11 UNL     1       0.247  61.921  70.565  0.00  0.00    +0.000 C 
ATOM      5  C12 UNL     1       0.755  63.229  69.979  0.00  0.00    +0.000 C 
ATOM      6  C13 UNL     1       1.284  61.065  71.309  0.00  0.00    +0.000 C 
ENDROOT
BRANCH   1  12
ATOM      7  C3  UNL     1       1.823  58.067  72.770  0.00  0.00    +0.000 C 
ATOM      8  C4  UNL     1       2.433  57.290  73.760  0.00  0.00    +0.000 C 
ATOM      9  C5  UNL     1       2.272  57.673  75.075  0.00  0.00    +0.000 C 
ATOM     10  N1  UNL     1       1.567  58.756  75.446  0.00  0.00    +0.000 NA
ATOM     11  C6  UNL     1       0.990  59.493  74.467  0.00  0.00    +0.000 C 
ATOM     12  C7  UNL     1       1.064  59.204  73.105  0.00  0.00    +0.000 C 
BRANCH   7  14
ATOM     13  C1  UNL     1       3.333  58.085  70.697  0.00  0.00    +0.000 C 
ATOM     14  C2  UNL     1       2.046  57.665  71.358  0.00  0.00    +0.000 C 
ATOM     15  O1  UNL     1       1.181  57.033  70.760  0.00  0.00    +0.000 OA
ENDBRANCH   7  14
ENDBRANCH   1  12
BRANCH   6  16
ATOM     16  C14 UNL     1       2.199  61.852  72.248  0.00  0.00    +0.000 C 
ATOM     17  O2  UNL     1       1.758  62.657  73.070  0.00  0.00    +0.000 OA
BRANCH  16  18
ATOM     18  C15 UNL     1       3.689  61.574  72.156  0.00  0.00    +0.000 C 
BRANCH  18  19
ATOM     19  C16 UNL     1       4.189  61.551  70.707  0.00  0.00    +0.000 C 
ATOM     20  C17 UNL     1       4.277  62.962  70.124  0.00  0.00    +0.000 C 
ATOM     21  C18 UNL     1       5.559  60.873  70.636  0.00  0.00    +0.000 C 
ENDBRANCH  18  19
ENDBRANCH  16  18
ENDBRANCH   6  16
TORSDOF 5
ENDMDL
MODEL 8
REMARK VINA RESULT:    -6.942     13.172     15.098
REMARK INTER + INTRA:          -8.804
REMARK INTER:                  -7.557
REMARK INTRA:                  -1.248
REMARK UNBOUND:                 0.167
REMARK  Name = ligantes_geracao2\Derivado_008.pdb
REMARK  9 active torsions:
REMARK  status: ('A' for Active; 'I' for Inactive)
REMARK    1  A    between atoms: C1_1  and  C2_2
REMARK    2  A    between atoms: C2_2  and  C3_4
REMARK    3  A    between atoms: C7_9  and  C8_10
REMARK    4  A    between atoms: C11_13  and  C12_14
REMARK    5  A    between atoms: C13_15  and  C14_16
REMARK    6  A    between atoms: C14_16  and  C15_18
REMARK    7  A    between atoms: C15_18  and  C16_19
REMARK    8  A    between atoms: C16_19  and  C17_20
REMARK    9  A    between atoms: C16_19  and  C18_21
REMARK                            x       y       z     vdW  Elec       q    Type
REMARK                         _______ _______ _______ _____ _____    ______ ____
ROOT
ATOM      1  C8  UNL     1       5.766  80.878  66.799  0.00  0.00    +0.000 C 
ATOM      2  C9  UNL     1       6.032  79.396  67.137  0.00  0.00    +0.000 C 
ATOM      3  C10 UNL     1       7.507  79.143  66.806  0.00  0.00    +0.000 C 
ATOM      4  C11 UNL     1       8.057  80.467  66.267  0.00  0.00    +0.000 C 
ATOM      5  C12 UNL     1       9.209  80.291  65.290  0.00  0.00    +0.000 C 
ATOM      6  C13 UNL     1       6.828  81.220  65.733  0.00  0.00    +0.000 C 
ENDROOT
BRANCH   1  12
ATOM      7  C3  UNL     1       3.864  82.590  66.602  0.00  0.00    +0.000 C 
ATOM      8  C4  UNL     1       2.538  82.909  66.296  0.00  0.00    +0.000 C 
ATOM      9  C5  UNL     1       1.710  81.895  65.862  0.00  0.00    +0.000 C 
ATOM     10  N1  UNL     1       2.119  80.624  65.712  0.00  0.00    +0.000 NA
ATOM     11  C6  UNL     1       3.410  80.342  66.011  0.00  0.00    +0.000 C 
ATOM     12  C7  UNL     1       4.340  81.271  66.474  0.00  0.00    +0.000 C 
BRANCH   7  14
ATOM     13  C1  UNL     1       5.343  84.582  65.953  0.00  0.00    +0.000 C 
ATOM     14  C2  UNL     1       4.751  83.703  67.023  0.00  0.00    +0.000 C 
ATOM     15  O1  UNL     1       5.000  83.867  68.214  0.00  0.00    +0.000 OA
ENDBRANCH   7  14
ENDBRANCH   1  12
BRANCH   6  16
ATOM     16  C14 UNL     1       6.393  80.808  64.327  0.00  0.00    +0.000 C 
ATOM     17  O2  UNL     1       6.344  79.628  63.975  0.00  0.00    +0.000 OA
BRANCH  16  18
ATOM     18  C15 UNL     1       5.980  81.919  63.377  0.00  0.00    +0.000 C 
BRANCH  18  19
ATOM     19  C16 UNL     1       4.645  81.625  62.683  0.00  0.00    +0.000 C 
ATOM     20  C17 UNL     1       3.673  82.797  62.822  0.00  0.00    +0.000 C 
ATOM     21  C18 UNL     1       4.882  81.320  61.203  0.00  0.00    +0.000 C 
ENDBRANCH  18  19
ENDBRANCH  16  18
ENDBRANCH   6  16
TORSDOF 5
ENDMDL
MODEL 9
REMARK VINA RESULT:    -6.928      7.350      9.836
REMARK INTER + INTRA:          -8.786
REMARK INTER:                  -7.743
REMARK INTRA:                  -1.043
REMARK UNBOUND:                 0.167
REMARK  Name = ligantes_geracao2\Derivado_008.pdb
REMARK  9 active torsions:
REMARK  status: ('A' for Active; 'I' for Inactive)
REMARK    1  A    between atoms: C1_1  and  C2_2
REMARK    2  A    between atoms: C2_2  and  C3_4
REMARK    3  A    between atoms: C7_9  and  C8_10
REMARK    4  A    between atoms: C11_13  and  C12_14
REMARK    5  A    between atoms: C13_15  and  C14_16
REMARK    6  A    between atoms: C14_16  and  C15_18
REMARK    7  A    between atoms: C15_18  and  C16_19
REMARK    8  A    between atoms: C16_19  and  C17_20
REMARK    9  A    between atoms: C16_19  and  C18_21
REMARK                            x       y       z     vdW  Elec       q    Type
REMARK                         _______ _______ _______ _____ _____    ______ ____
ROOT
ATOM      1  C8  UNL     1       2.793  61.457  71.757  0.00  0.00    +0.000 C 
ATOM      2  C9  UNL     1       4.110  61.026  72.436  0.00  0.00    +0.000 C 
ATOM      3  C10 UNL     1       4.556  59.743  71.725  0.00  0.00    +0.000 C 
ATOM      4  C11 UNL     1       3.487  59.448  70.668  0.00  0.00    +0.000 C 
ATOM      5  C12 UNL     1       3.351  57.968  70.342  0.00  0.00    +0.000 C 
ATOM      6  C13 UNL     1       2.217  60.146  71.181  0.00  0.00    +0.000 C 
ENDROOT
BRANCH   1  12
ATOM      7  C3  UNL     1       1.044  63.320  71.995  0.00  0.00    +0.000 C 
ATOM      8  C4  UNL     1       0.180  64.087  72.781  0.00  0.00    +0.000 C 
ATOM      9  C5  UNL     1       0.126  63.822  74.134  0.00  0.00    +0.000 C 
ATOM     10  N1  UNL     1       0.855  62.861  74.726  0.00  0.00    +0.000 NA
ATOM     11  C6  UNL     1       1.681  62.129  73.940  0.00  0.00    +0.000 C 
ATOM     12  C7  UNL     1       1.839  62.308  72.567  0.00  0.00    +0.000 C 
BRANCH   7  14
ATOM     13  C1  UNL     1      -0.044  62.990  69.696  0.00  0.00    +0.000 C 
ATOM     14  C2  UNL     1       1.054  63.589  70.536  0.00  0.00    +0.000 C 
ATOM     15  O1  UNL     1       1.956  64.262  70.046  0.00  0.00    +0.000 OA
ENDBRANCH   7  14
ENDBRANCH   1  12
BRANCH   6  16
ATOM     16  C14 UNL     1       1.432  59.350  72.223  0.00  0.00    +0.000 C 
ATOM     17  O2  UNL     1       1.980  58.819  73.192  0.00  0.00    +0.000 OA
BRANCH  16  18
ATOM     18  C15 UNL     1      -0.073  59.268  72.042  0.00  0.00    +0.000 C 
BRANCH  18  19
ATOM     19  C16 UNL     1      -0.836  59.846  73.239  0.00  0.00    +0.000 C 
ATOM     20  C17 UNL     1      -1.822  60.931  72.802  0.00  0.00    +0.000 C 
ATOM     21  C18 UNL     1      -1.584  58.730  73.971  0.00  0.00    +0.000 C 
ENDBRANCH  18  19
ENDBRANCH  16  18
ENDBRANCH   6  16
TORSDOF 5
ENDMDL
