MODEL 1
REMARK VINA RESULT:    -8.249      0.000      0.000
REMARK INTER + INTRA:         -11.476
REMARK INTER:                 -10.178
REMARK INTRA:                  -1.299
REMARK UNBOUND:                -1.299
REMARK  Name = ligantes_geracao2\Derivado_023.pdb
REMARK  5 active torsions:
REMARK  status: ('A' for Active; 'I' for Inactive)
REMARK    1  A    between atoms: C1_1  and  C2_2
REMARK    2  A    between atoms: C2_2  and  C3_3
REMARK    3  A    between atoms: C3_3  and  C4_5
REMARK    4  A    between atoms: C8_10  and  C9_11
REMARK    5  A    between atoms: C13_16  and  C14_17
REMARK                            x       y       z     vdW  Elec       q    Type
REMARK                         _______ _______ _______ _____ _____    ______ ____
ROOT
ATOM      1  C4  UNL     1       2.963  66.598  65.737  0.00  0.00    +0.000 C 
ATOM      2  C5  UNL     1       3.179  67.111  67.157  0.00  0.00    +0.000 C 
ATOM      3  F1  UNL     1       4.440  66.811  67.571  0.00  0.00    +0.000 F 
ATOM      4  C6  UNL     1       3.076  68.617  67.041  0.00  0.00    +0.000 C 
ATOM      5  C7  UNL     1       3.832  68.892  65.746  0.00  0.00    +0.000 C 
ATOM      6  C8  UNL     1       3.427  67.745  64.796  0.00  0.00    +0.000 C 
ENDROOT
BRANCH   6   7
ATOM      7  C9  UNL     1       2.340  68.070  63.774  0.00  0.00    +0.000 C 
ATOM      8  C10 UNL     1       0.981  67.935  64.065  0.00  0.00    +0.000 C 
ATOM      9  N1  UNL     1      -0.029  68.164  63.195  0.00  0.00    +0.000 NA
ATOM     10  C11 UNL     1       0.315  68.550  61.954  0.00  0.00    +0.000 C 
ATOM     11  C12 UNL     1       1.622  68.713  61.543  0.00  0.00    +0.000 C 
ATOM     12  C13 UNL     1       2.654  68.466  62.457  0.00  0.00    +0.000 C 
BRANCH  12  13
ATOM     13  C14 UNL     1       4.038  68.654  62.006  0.00  0.00    +0.000 C 
ATOM     14  C15 UNL     1       4.782  67.672  61.497  0.00  0.00    +0.000 C 
ATOM     15  F2  UNL     1       4.333  66.412  61.360  0.00  0.00    +0.000 F 
ENDBRANCH  12  13
ENDBRANCH   6   7
BRANCH   1  16
ATOM     16  C3  UNL     1       3.706  65.286  65.526  0.00  0.00    +0.000 C 
ATOM     17  O1  UNL     1       3.551  64.307  66.259  0.00  0.00    +0.000 OA
BRANCH  16  19
ATOM     18  C1  UNL     1       4.472  63.937  63.552  0.00  0.00    +0.000 C 
ATOM     19  C2  UNL     1       4.664  65.212  64.350  0.00  0.00    +0.000 C 
ENDBRANCH  16  19
ENDBRANCH   1  16
TORSDOF 4
ENDMDL
MODEL 2
REMARK VINA RESULT:    -7.934      2.087      2.922
REMARK INTER + INTRA:         -11.088
REMARK INTER:                  -9.749
REMARK INTRA:                  -1.339
REMARK UNBOUND:                -1.299
REMARK  Name = ligantes_geracao2\Derivado_023.pdb
REMARK  5 active torsions:
REMARK  status: ('A' for Active; 'I' for Inactive)
REMARK    1  A    between atoms: C1_1  and  C2_2
REMARK    2  A    between atoms: C2_2  and  C3_3
REMARK    3  A    between atoms: C3_3  and  C4_5
REMARK    4  A    between atoms: C8_10  and  C9_11
REMARK    5  A    between atoms: C13_16  and  C14_17
REMARK                            x       y       z     vdW  Elec       q    Type
REMARK                         _______ _______ _______ _____ _____    ______ ____
ROOT
ATOM      1  C4  UNL     1       3.470  66.910  65.670  0.00  0.00    +0.000 C 
ATOM      2  C5  UNL     1       4.823  67.607  65.577  0.00  0.00    +0.000 C 
ATOM      3  F1  UNL     1       5.656  66.895  64.771  0.00  0.00    +0.000 F 
ATOM      4  C6  UNL     1       4.530  68.925  64.890  0.00  0.00    +0.000 C 
ATOM      5  C7  UNL     1       3.535  68.510  63.811  0.00  0.00    +0.000 C 
ATOM      6  C8  UNL     1       2.625  67.465  64.489  0.00  0.00    +0.000 C 
ENDROOT
BRANCH   6   7
ATOM      7  C9  UNL     1       1.274  67.972  64.990  0.00  0.00    +0.000 C 
ATOM      8  C10 UNL     1       1.059  68.317  66.326  0.00  0.00    +0.000 C 
ATOM      9  N1  UNL     1      -0.120  68.731  66.844  0.00  0.00    +0.000 NA
ATOM     10  C11 UNL     1      -1.160  68.812  65.996  0.00  0.00    +0.000 C 
ATOM     11  C12 UNL     1      -1.075  68.493  64.656  0.00  0.00    +0.000 C 
ATOM     12  C13 UNL     1       0.153  68.061  64.140  0.00  0.00    +0.000 C 
BRANCH  12  13
ATOM     13  C14 UNL     1       0.226  67.735  62.711  0.00  0.00    +0.000 C 
ATOM     14  C15 UNL     1       0.325  68.657  61.753  0.00  0.00    +0.000 C 
ATOM     15  F2  UNL     1       0.355  69.976  62.011  0.00  0.00    +0.000 F 
ENDBRANCH  12  13
ENDBRANCH   6   7
BRANCH   1  16
ATOM     16  C3  UNL     1       3.647  65.398  65.647  0.00  0.00    +0.000 C 
ATOM     17  O1  UNL     1       4.142  64.771  66.587  0.00  0.00    +0.000 OA
BRANCH  16  19
ATOM     18  C1  UNL     1       4.343  64.221  63.543  0.00  0.00    +0.000 C 
ATOM     19  C2  UNL     1       3.177  64.663  64.405  0.00  0.00    +0.000 C 
ENDBRANCH  16  19
ENDBRANCH   1  16
TORSDOF 4
ENDMDL
MODEL 3
REMARK VINA RESULT:    -7.587      2.782      4.052
REMARK INTER + INTRA:         -10.660
REMARK INTER:                  -9.423
REMARK INTRA:                  -1.237
REMARK UNBOUND:                -1.299
REMARK  Name = ligantes_geracao2\Derivado_023.pdb
REMARK  5 active torsions:
REMARK  status: ('A' for Active; 'I' for Inactive)
REMARK    1  A    between atoms: C1_1  and  C2_2
REMARK    2  A    between atoms: C2_2  and  C3_3
REMARK    3  A    between atoms: C3_3  and  C4_5
REMARK    4  A    between atoms: C8_10  and  C9_11
REMARK    5  A    between atoms: C13_16  and  C14_17
REMARK                            x       y       z     vdW  Elec       q    Type
REMARK                         _______ _______ _______ _____ _____    ______ ____
ROOT
ATOM      1  C4  UNL     1       3.698  65.837  66.847  0.00  0.00    +0.000 C 
ATOM      2  C5  UNL     1       4.780  65.165  67.687  0.00  0.00    +0.000 C 
ATOM      3  F1  UNL     1       5.981  65.762  67.458  0.00  0.00    +0.000 F 
ATOM      4  C6  UNL     1       4.386  65.453  69.121  0.00  0.00    +0.000 C 
ATOM      5  C7  UNL     1       3.929  66.905  69.043  0.00  0.00    +0.000 C 
ATOM      6  C8  UNL     1       3.157  67.010  67.711  0.00  0.00    +0.000 C 
ENDROOT
BRANCH   6   7
ATOM      7  C9  UNL     1       1.634  66.944  67.808  0.00  0.00    +0.000 C 
ATOM      8  C10 UNL     1       0.984  66.221  68.810  0.00  0.00    +0.000 C 
ATOM      9  N1  UNL     1      -0.357  66.086  68.929  0.00  0.00    +0.000 NA
ATOM     10  C11 UNL     1      -1.113  66.699  68.002  0.00  0.00    +0.000 C 
ATOM     11  C12 UNL     1      -0.589  67.436  66.959  0.00  0.00    +0.000 C 
ATOM     12  C13 UNL     1       0.802  67.561  66.851  0.00  0.00    +0.000 C 
BRANCH  12  13
ATOM     13  C14 UNL     1       1.341  68.356  65.743  0.00  0.00    +0.000 C 
ATOM     14  C15 UNL     1       1.371  67.929  64.480  0.00  0.00    +0.000 C 
ATOM     15  F2  UNL     1       0.917  66.719  64.109  0.00  0.00    +0.000 F 
ENDBRANCH  12  13
ENDBRANCH   6   7
BRANCH   1  16
ATOM     16  C3  UNL     1       4.262  66.270  65.500  0.00  0.00    +0.000 C 
ATOM     17  O1  UNL     1       4.699  67.405  65.294  0.00  0.00    +0.000 OA
BRANCH  16  19
ATOM     18  C1  UNL     1       3.208  64.181  64.592  0.00  0.00    +0.000 C 
ATOM     19  C2  UNL     1       4.280  65.235  64.390  0.00  0.00    +0.000 C 
ENDBRANCH  16  19
ENDBRANCH   1  16
TORSDOF 4
ENDMDL
MODEL 4
REMARK VINA RESULT:    -7.464      2.594      3.968
REMARK INTER + INTRA:         -10.508
REMARK INTER:                  -9.422
REMARK INTRA:                  -1.086
REMARK UNBOUND:                -1.299
REMARK  Name = ligantes_geracao2\Derivado_023.pdb
REMARK  5 active torsions:
REMARK  status: ('A' for Active; 'I' for Inactive)
REMARK    1  A    between atoms: C1_1  and  C2_2
REMARK    2  A    between atoms: C2_2  and  C3_3
REMARK    3  A    between atoms: C3_3  and  C4_5
REMARK    4  A    between atoms: C8_10  and  C9_11
REMARK    5  A    between atoms: C13_16  and  C14_17
REMARK                            x       y       z     vdW  Elec       q    Type
REMARK                         _______ _______ _______ _____ _____    ______ ____
ROOT
ATOM      1  C4  UNL     1       2.959  68.368  66.619  0.00  0.00    +0.000 C 
ATOM      2  C5  UNL     1       3.645  67.716  67.814  0.00  0.00    +0.000 C 
ATOM      3  F1  UNL     1       2.725  67.074  68.584  0.00  0.00    +0.000 F 
ATOM      4  C6  UNL     1       4.556  66.667  67.210  0.00  0.00    +0.000 C 
ATOM      5  C7  UNL     1       3.681  66.079  66.108  0.00  0.00    +0.000 C 
ATOM      6  C8  UNL     1       2.938  67.288  65.501  0.00  0.00    +0.000 C 
ENDROOT
BRANCH   6   7
ATOM      7  C9  UNL     1       3.517  67.851  64.204  0.00  0.00    +0.000 C 
ATOM      8  C10 UNL     1       4.846  68.265  64.101  0.00  0.00    +0.000 C 
ATOM      9  N1  UNL     1       5.410  68.810  62.999  0.00  0.00    +0.000 NA
ATOM     10  C11 UNL     1       4.617  68.963  61.924  0.00  0.00    +0.000 C 
ATOM     11  C12 UNL     1       3.285  68.599  61.904  0.00  0.00    +0.000 C 
ATOM     12  C13 UNL     1       2.719  68.040  63.057  0.00  0.00    +0.000 C 
BRANCH  12  13
ATOM     13  C14 UNL     1       1.305  67.651  63.014  0.00  0.00    +0.000 C 
ATOM     14  C15 UNL     1       0.331  68.472  62.622  0.00  0.00    +0.000 C 
ATOM     15  F2  UNL     1       0.555  69.741  62.238  0.00  0.00    +0.000 F 
ENDBRANCH  12  13
ENDBRANCH   6   7
BRANCH   1  16
ATOM     16  C3  UNL     1       1.579  68.879  67.011  0.00  0.00    +0.000 C 
ATOM     17  O1  UNL     1       1.411  69.920  67.650  0.00  0.00    +0.000 OA
BRANCH  16  19
ATOM     18  C1  UNL     1      -0.807  68.929  66.235  0.00  0.00    +0.000 C 
ATOM     19  C2  UNL     1       0.383  68.053  66.573  0.00  0.00    +0.000 C 
ENDBRANCH  16  19
ENDBRANCH   1  16
TORSDOF 4
ENDMDL
MODEL 5
REMARK VINA RESULT:    -7.324      6.509      8.967
REMARK INTER + INTRA:         -10.336
REMARK INTER:                  -9.140
REMARK INTRA:                  -1.196
REMARK UNBOUND:                -1.299
REMARK  Name = ligantes_geracao2\Derivado_023.pdb
REMARK  5 active torsions:
REMARK  status: ('A' for Active; 'I' for Inactive)
REMARK    1  A    between atoms: C1_1  and  C2_2
REMARK    2  A    between atoms: C2_2  and  C3_3
REMARK    3  A    between atoms: C3_3  and  C4_5
REMARK    4  A    between atoms: C8_10  and  C9_11
REMARK    5  A    between atoms: C13_16  and  C14_17
REMARK                            x       y       z     vdW  Elec       q    Type
REMARK                         _______ _______ _______ _____ _____    ______ ____
ROOT
ATOM      1  C4  UNL     1       2.418  63.525  70.042  0.00  0.00    +0.000 C 
ATOM      2  C5  UNL     1       1.721  64.881  70.061  0.00  0.00    +0.000 C 
ATOM      3  F1  UNL     1       1.706  65.413  68.809  0.00  0.00    +0.000 F 
ATOM      4  C6  UNL     1       0.290  64.572  70.449  0.00  0.00    +0.000 C 
ATOM      5  C7  UNL     1       0.006  63.307  69.648  0.00  0.00    +0.000 C 
ATOM      6  C8  UNL     1       1.307  62.482  69.730  0.00  0.00    +0.000 C 
ENDROOT
BRANCH   6   7
ATOM      7  C9  UNL     1       1.327  61.356  70.761  0.00  0.00    +0.000 C 
ATOM      8  C10 UNL     1       0.717  61.482  72.011  0.00  0.00    +0.000 C 
ATOM      9  N1  UNL     1       0.733  60.543  72.985  0.00  0.00    +0.000 NA
ATOM     10  C11 UNL     1       1.394  59.403  72.718  0.00  0.00    +0.000 C 
ATOM     11  C12 UNL     1       2.043  59.163  71.523  0.00  0.00    +0.000 C 
ATOM     12  C13 UNL     1       2.018  60.149  70.529  0.00  0.00    +0.000 C 
BRANCH  12  13
ATOM     13  C14 UNL     1       2.705  59.871  69.263  0.00  0.00    +0.000 C 
ATOM     14  C15 UNL     1       4.022  59.997  69.101  0.00  0.00    +0.000 C 
ATOM     15  F2  UNL     1       4.843  60.401  70.085  0.00  0.00    +0.000 F 
ENDBRANCH  12  13
ENDBRANCH   6   7
BRANCH   1  16
ATOM     16  C3  UNL     1       3.562  63.529  69.037  0.00  0.00    +0.000 C 
ATOM     17  O1  UNL     1       3.441  63.100  67.887  0.00  0.00    +0.000 OA
BRANCH  16  19
ATOM     18  C1  UNL     1       5.215  65.402  68.800  0.00  0.00    +0.000 C 
ATOM     19  C2  UNL     1       4.891  64.097  69.501  0.00  0.00    +0.000 C 
ENDBRANCH  16  19
ENDBRANCH   1  16
TORSDOF 4
ENDMDL
MODEL 6
REMARK VINA RESULT:    -7.196      2.618      4.057
REMARK INTER + INTRA:         -10.177
REMARK INTER:                  -9.301
REMARK INTRA:                  -0.876
REMARK UNBOUND:                -1.299
REMARK  Name = ligantes_geracao2\Derivado_023.pdb
REMARK  5 active torsions:
REMARK  status: ('A' for Active; 'I' for Inactive)
REMARK    1  A    between atoms: C1_1  and  C2_2
REMARK    2  A    between atoms: C2_2  and  C3_3
REMARK    3  A    between atoms: C3_3  and  C4_5
REMARK    4  A    between atoms: C8_10  and  C9_11
REMARK    5  A    between atoms: C13_16  and  C14_17
REMARK                            x       y       z     vdW  Elec       q    Type
REMARK                         _______ _______ _______ _____ _____    ______ ____
ROOT
ATOM      1  C4  UNL     1       0.924  67.322  65.460  0.00  0.00    +0.000 C 
ATOM      2  C5  UNL     1      -0.366  67.938  64.927  0.00  0.00    +0.000 C 
ATOM      3  F1  UNL     1      -0.574  69.151  65.507  0.00  0.00    +0.000 F 
ATOM      4  C6  UNL     1      -0.101  68.169  63.454  0.00  0.00    +0.000 C 
ATOM      5  C7  UNL     1       1.333  68.686  63.462  0.00  0.00    +0.000 C 
ATOM      6  C8  UNL     1       2.057  67.839  64.530  0.00  0.00    +0.000 C 
ENDROOT
BRANCH   6   7
ATOM      7  C9  UNL     1       2.894  66.673  64.009  0.00  0.00    +0.000 C 
ATOM      8  C10 UNL     1       2.691  65.361  64.441  0.00  0.00    +0.000 C 
ATOM      9  N1  UNL     1       3.423  64.290  64.055  0.00  0.00    +0.000 NA
ATOM     10  C11 UNL     1       4.422  64.520  63.185  0.00  0.00    +0.000 C 
ATOM     11  C12 UNL     1       4.726  65.773  62.690  0.00  0.00    +0.000 C 
ATOM     12  C13 UNL     1       3.960  66.869  63.107  0.00  0.00    +0.000 C 
BRANCH  12  13
ATOM     13  C14 UNL     1       4.291  68.190  62.562  0.00  0.00    +0.000 C 
ATOM     14  C15 UNL     1       5.152  69.027  63.142  0.00  0.00    +0.000 C 
ATOM     15  F2  UNL     1       5.791  68.737  64.289  0.00  0.00    +0.000 F 
ENDBRANCH  12  13
ENDBRANCH   6   7
BRANCH   1  16
ATOM     16  C3  UNL     1       1.117  67.679  66.928  0.00  0.00    +0.000 C 
ATOM     17  O1  UNL     1       0.344  67.305  67.812  0.00  0.00    +0.000 OA
BRANCH  16  19
ATOM     18  C1  UNL     1       3.304  67.762  68.156  0.00  0.00    +0.000 C 
ATOM     19  C2  UNL     1       2.327  68.524  67.282  0.00  0.00    +0.000 C 
ENDBRANCH  16  19
ENDBRANCH   1  16
TORSDOF 4
ENDMDL
MODEL 7
REMARK VINA RESULT:    -6.967      7.228      9.589
REMARK INTER + INTRA:          -9.895
REMARK INTER:                  -8.778
REMARK INTRA:                  -1.117
REMARK UNBOUND:                -1.299
REMARK  Name = ligantes_geracao2\Derivado_023.pdb
REMARK  5 active torsions:
REMARK  status: ('A' for Active; 'I' for Inactive)
REMARK    1  A    between atoms: C1_1  and  C2_2
REMARK    2  A    between atoms: C2_2  and  C3_3
REMARK    3  A    between atoms: C3_3  and  C4_5
REMARK    4  A    between atoms: C8_10  and  C9_11
REMARK    5  A    between atoms: C13_16  and  C14_17
REMARK                            x       y       z     vdW  Elec       q    Type
REMARK                         _______ _______ _______ _____ _____    ______ ____
ROOT
ATOM      1  C4  UNL     1       3.241  61.192  70.123  0.00  0.00    +0.000 C 
ATOM      2  C5  UNL     1       4.514  60.354  70.177  0.00  0.00    +0.000 C 
ATOM      3  F1  UNL     1       5.605  61.164  70.115  0.00  0.00    +0.000 F 
ATOM      4  C6  UNL     1       4.493  59.712  71.549  0.00  0.00    +0.000 C 
ATOM      5  C7  UNL     1       4.002  60.855  72.431  0.00  0.00    +0.000 C 
ATOM      6  C8  UNL     1       2.915  61.564  71.596  0.00  0.00    +0.000 C 
ENDROOT
BRANCH   6   7
ATOM      7  C9  UNL     1       1.468  61.204  71.930  0.00  0.00    +0.000 C 
ATOM      8  C10 UNL     1       1.094  59.917  72.321  0.00  0.00    +0.000 C 
ATOM      9  N1  UNL     1      -0.171  59.520  72.589  0.00  0.00    +0.000 NA
ATOM     10  C11 UNL     1      -1.137  60.447  72.464  0.00  0.00    +0.000 C 
ATOM     11  C12 UNL     1      -0.895  61.750  72.079  0.00  0.00    +0.000 C 
ATOM     12  C13 UNL     1       0.422  62.140  71.801  0.00  0.00    +0.000 C 
BRANCH  12  13
ATOM     13  C14 UNL     1       0.661  63.531  71.402  0.00  0.00    +0.000 C 
ATOM     14  C15 UNL     1       0.281  64.032  70.227  0.00  0.00    +0.000 C 
ATOM     15  F2  UNL     1      -0.349  63.301  69.291  0.00  0.00    +0.000 F 
ENDBRANCH  12  13
ENDBRANCH   6   7
BRANCH   1  16
ATOM     16  C3  UNL     1       3.435  62.395  69.209  0.00  0.00    +0.000 C 
ATOM     17  O1  UNL     1       3.177  62.365  68.004  0.00  0.00    +0.000 OA
BRANCH  16  19
ATOM     18  C1  UNL     1       4.543  64.610  68.807  0.00  0.00    +0.000 C 
ATOM     19  C2  UNL     1       3.960  63.670  69.844  0.00  0.00    +0.000 C 
ENDBRANCH  16  19
ENDBRANCH   1  16
TORSDOF 4
ENDMDL
MODEL 8
REMARK VINA RESULT:    -6.941      5.458      7.434
REMARK INTER + INTRA:          -9.862
REMARK INTER:                  -9.622
REMARK INTRA:                  -0.240
REMARK UNBOUND:                -1.299
REMARK  Name = ligantes_geracao2\Derivado_023.pdb
REMARK  5 active torsions:
REMARK  status: ('A' for Active; 'I' for Inactive)
REMARK    1  A    between atoms: C1_1  and  C2_2
REMARK    2  A    between atoms: C2_2  and  C3_3
REMARK    3  A    between atoms: C3_3  and  C4_5
REMARK    4  A    between atoms: C8_10  and  C9_11
REMARK    5  A    between atoms: C13_16  and  C14_17
REMARK                            x       y       z     vdW  Elec       q    Type
REMARK                         _______ _______ _______ _____ _____    ______ ____
ROOT
ATOM      1  C4  UNL     1       2.466  61.708  69.886  0.00  0.00    +0.000 C 
ATOM      2  C5  UNL     1       1.591  60.669  70.579  0.00  0.00    +0.000 C 
ATOM      3  F1  UNL     1       2.353  59.893  71.397  0.00  0.00    +0.000 F 
ATOM      4  C6  UNL     1       0.652  61.477  71.450  0.00  0.00    +0.000 C 
ATOM      5  C7  UNL     1       1.579  62.549  72.013  0.00  0.00    +0.000 C 
ATOM      6  C8  UNL     1       2.501  62.936  70.838  0.00  0.00    +0.000 C 
ENDROOT
BRANCH   6   7
ATOM      7  C9  UNL     1       2.128  64.209  70.081  0.00  0.00    +0.000 C 
ATOM      8  C10 UNL     1       0.809  64.657  69.984  0.00  0.00    +0.000 C 
ATOM      9  N1  UNL     1       0.404  65.749  69.295  0.00  0.00    +0.000 NA
ATOM     10  C11 UNL     1       1.357  66.450  68.657  0.00  0.00    +0.000 C 
ATOM     11  C12 UNL     1       2.694  66.106  68.672  0.00  0.00    +0.000 C 
ATOM     12  C13 UNL     1       3.091  64.969  69.386  0.00  0.00    +0.000 C 
BRANCH  12  13
ATOM     13  C14 UNL     1       4.517  64.624  69.399  0.00  0.00    +0.000 C 
ATOM     14  C15 UNL     1       5.429  65.252  68.656  0.00  0.00    +0.000 C 
ATOM     15  F2  UNL     1       5.122  66.255  67.815  0.00  0.00    +0.000 F 
ENDBRANCH  12  13
ENDBRANCH   6   7
BRANCH   1  16
ATOM     16  C3  UNL     1       3.839  61.126  69.576  0.00  0.00    +0.000 C 
ATOM     17  O1  UNL     1       4.023  60.285  68.693  0.00  0.00    +0.000 OA
BRANCH  16  19
ATOM     18  C1  UNL     1       5.384  60.652  71.496  0.00  0.00    +0.000 C 
ATOM     19  C2  UNL     1       5.009  61.632  70.402  0.00  0.00    +0.000 C 
ENDBRANCH  16  19
ENDBRANCH   1  16
TORSDOF 4
ENDMDL
MODEL 9
REMARK VINA RESULT:    -6.623      8.183     10.816
REMARK INTER + INTRA:          -9.471
REMARK INTER:                  -8.058
REMARK INTRA:                  -1.413
REMARK UNBOUND:                -1.299
REMARK  Name = ligantes_geracao2\Derivado_023.pdb
REMARK  5 active torsions:
REMARK  status: ('A' for Active; 'I' for Inactive)
REMARK    1  A    between atoms: C1_1  and  C2_2
REMARK    2  A    between atoms: C2_2  and  C3_3
REMARK    3  A    between atoms: C3_3  and  C4_5
REMARK    4  A    between atoms: C8_10  and  C9_11
REMARK    5  A    between atoms: C13_16  and  C14_17
REMARK                            x       y       z     vdW  Elec       q    Type
REMARK                         _______ _______ _______ _____ _____    ______ ____
ROOT
ATOM      1  C4  UNL     1       3.287  61.145  70.153  0.00  0.00    +0.000 C 
ATOM      2  C5  UNL     1       4.798  61.340  70.075  0.00  0.00    +0.000 C 
ATOM      3  F1  UNL     1       5.104  62.655  70.243  0.00  0.00    +0.000 F 
ATOM      4  C6  UNL     1       5.345  60.582  71.266  0.00  0.00    +0.000 C 
ATOM      5  C7  UNL     1       4.340  60.932  72.359  0.00  0.00    +0.000 C 
ATOM      6  C8  UNL     1       2.966  60.916  71.656  0.00  0.00    +0.000 C 
ENDROOT
BRANCH   6   7
ATOM      7  C9  UNL     1       2.133  59.649  71.837  0.00  0.00    +0.000 C 
ATOM      8  C10 UNL     1       2.460  58.447  71.206  0.00  0.00    +0.000 C 
ATOM      9  N1  UNL     1       1.743  57.303  71.288  0.00  0.00    +0.000 NA
ATOM     10  C11 UNL     1       0.629  57.337  72.040  0.00  0.00    +0.000 C 
ATOM     11  C12 UNL     1       0.197  58.465  72.707  0.00  0.00    +0.000 C 
ATOM     12  C13 UNL     1       0.950  59.642  72.605  0.00  0.00    +0.000 C 
BRANCH  12  13
ATOM     13  C14 UNL     1       0.481  60.828  73.330  0.00  0.00    +0.000 C 
ATOM     14  C15 UNL     1      -0.548  61.574  72.926  0.00  0.00    +0.000 C 
ATOM     15  F2  UNL     1      -1.246  61.311  71.808  0.00  0.00    +0.000 F 
ENDBRANCH  12  13
ENDBRANCH   6   7
BRANCH   1  16
ATOM     16  C3  UNL     1       2.564  62.337  69.540  0.00  0.00    +0.000 C 
ATOM     17  O1  UNL     1       2.573  62.572  68.330  0.00  0.00    +0.000 OA
BRANCH  16  19
ATOM     18  C1  UNL     1       0.411  63.552  69.971  0.00  0.00    +0.000 C 
ATOM     19  C2  UNL     1       1.804  63.248  70.487  0.00  0.00    +0.000 C 
ENDBRANCH  16  19
ENDBRANCH   1  16
TORSDOF 4
ENDMDL
