MODEL 1
REMARK VINA RESULT:   -10.176      0.000      0.000
REMARK INTER + INTRA:         -13.160
REMARK INTER:                 -13.448
REMARK INTRA:                   0.288
REMARK UNBOUND:                 0.288
REMARK  Name = ligantes_geracao2\Derivado_005.pdb
REMARK  10 active torsions:
REMARK  status: ('A' for Active; 'I' for Inactive)
REMARK    1  A    between atoms: C1_1  and  C2_2
REMARK    2  A    between atoms: C4_4  and  C5_5
REMARK    3  A    between atoms: N1_6  and  O1_7
REMARK    4  A    between atoms: C6_8  and  C7_9
REMARK    5  A    between atoms: C10_12  and  C11_13
REMARK    6  A    between atoms: C12_14  and  C13_15
REMARK    7  A    between atoms: C13_15  and  C14_17
REMARK    8  A    between atoms: C14_17  and  C15_18
REMARK    9  A    between atoms: C15_18  and  C16_19
REMARK   10  A    between atoms: C15_18  and  C17_20
REMARK                            x       y       z     vdW  Elec       q    Type
REMARK                         _______ _______ _______ _____ _____    ______ ____
ROOT
ATOM      1  C7  UNL     1       4.282  68.409  64.909  0.00  0.00    +0.000 C 
ATOM      2  C8  UNL     1       5.550  68.841  64.140  0.00  0.00    +0.000 C 
ATOM      3  C9  UNL     1       5.089  69.174  62.715  0.00  0.00    +0.000 C 
ATOM      4  C10 UNL     1       3.589  68.860  62.666  0.00  0.00    +0.000 C 
ATOM      5  C11 UNL     1       3.104  68.421  61.293  0.00  0.00    +0.000 C 
ATOM      6  C12 UNL     1       3.352  67.863  63.808  0.00  0.00    +0.000 C 
ENDROOT
BRANCH   1  11
ATOM      7  C1  UNL     1       5.185  64.936  69.466  0.00  0.00    +0.000 C 
ATOM      8  C2  UNL     1       4.906  65.847  68.309  0.00  0.00    +0.000 C 
ATOM      9  C3  UNL     1       3.839  66.729  68.347  0.00  0.00    +0.000 C 
ATOM     10  C4  UNL     1       3.599  67.560  67.245  0.00  0.00    +0.000 C 
ATOM     11  C6  UNL     1       4.448  67.521  66.124  0.00  0.00    +0.000 C 
ATOM     12  C18 UNL     1       5.477  66.582  66.191  0.00  0.00    +0.000 C 
ATOM     13  N2  UNL     1       5.719  65.761  67.240  0.00  0.00    +0.000 NA
BRANCH  10  14
ATOM     14  C5  UNL     1       2.405  68.427  67.387  0.00  0.00    +0.000 C 
ATOM     15  N1  UNL     1       2.430  69.615  67.900  0.00  0.00    +0.000 NA
BRANCH  15  16
ATOM     16  O1  UNL     1       1.140  70.154  67.857  0.00  0.00    +0.000 OA
ATOM     17  H   UNL     1       0.440  69.731  68.314  0.00  0.00    +0.000 HD
ENDBRANCH  15  16
ENDBRANCH  10  14
ENDBRANCH   1  11
BRANCH   6  18
ATOM     18  C13 UNL     1       3.669  66.410  63.440  0.00  0.00    +0.000 C 
ATOM     19  O2  UNL     1       4.633  66.124  62.731  0.00  0.00    +0.000 OA
BRANCH  18  20
ATOM     20  C14 UNL     1       2.717  65.363  64.008  0.00  0.00    +0.000 C 
BRANCH  20  21
ATOM     21  C15 UNL     1       3.289  63.960  64.260  0.00  0.00    +0.000 C 
ATOM     22  C16 UNL     1       3.505  63.670  65.745  0.00  0.00    +0.000 C 
ATOM     23  C17 UNL     1       4.555  63.681  63.451  0.00  0.00    +0.000 C 
ENDBRANCH  20  21
ENDBRANCH  18  20
ENDBRANCH   6  18
TORSDOF 6
ENDMDL
MODEL 2
REMARK VINA RESULT:   -10.009      2.494      5.200
REMARK INTER + INTRA:         -12.939
REMARK INTER:                 -12.249
REMARK INTRA:                  -0.690
REMARK UNBOUND:                 0.288
REMARK  Name = ligantes_geracao2\Derivado_005.pdb
REMARK  10 active torsions:
REMARK  status: ('A' for Active; 'I' for Inactive)
REMARK    1  A    between atoms: C1_1  and  C2_2
REMARK    2  A    between atoms: C4_4  and  C5_5
REMARK    3  A    between atoms: N1_6  and  O1_7
REMARK    4  A    between atoms: C6_8  and  C7_9
REMARK    5  A    between atoms: C10_12  and  C11_13
REMARK    6  A    between atoms: C12_14  and  C13_15
REMARK    7  A    between atoms: C13_15  and  C14_17
REMARK    8  A    between atoms: C14_17  and  C15_18
REMARK    9  A    between atoms: C15_18  and  C16_19
REMARK   10  A    between atoms: C15_18  and  C17_20
REMARK                            x       y       z     vdW  Elec       q    Type
REMARK                         _______ _______ _______ _____ _____    ______ ____
ROOT
ATOM      1  C7  UNL     1       2.862  67.598  66.874  0.00  0.00    +0.000 C 
ATOM      2  C8  UNL     1       2.030  66.910  67.980  0.00  0.00    +0.000 C 
ATOM      3  C9  UNL     1       3.043  66.265  68.934  0.00  0.00    +0.000 C 
ATOM      4  C10 UNL     1       4.428  66.525  68.328  0.00  0.00    +0.000 C 
ATOM      5  C11 UNL     1       5.445  65.440  68.645  0.00  0.00    +0.000 C 
ATOM      6  C12 UNL     1       4.169  66.783  66.837  0.00  0.00    +0.000 C 
ENDROOT
BRANCH   1  11
ATOM      7  C1  UNL     1       0.092  68.482  61.856  0.00  0.00    +0.000 C 
ATOM      8  C2  UNL     1       0.852  68.267  63.130  0.00  0.00    +0.000 C 
ATOM      9  C3  UNL     1       2.172  68.671  63.240  0.00  0.00    +0.000 C 
ATOM     10  C4  UNL     1       2.858  68.446  64.440  0.00  0.00    +0.000 C 
ATOM     11  C6  UNL     1       2.207  67.843  65.532  0.00  0.00    +0.000 C 
ATOM     12  C18 UNL     1       0.885  67.463  65.299  0.00  0.00    +0.000 C 
ATOM     13  N2  UNL     1       0.207  67.659  64.142  0.00  0.00    +0.000 NA
BRANCH  10  14
ATOM     14  C5  UNL     1       4.274  68.882  64.421  0.00  0.00    +0.000 C 
ATOM     15  N1  UNL     1       4.911  69.226  63.347  0.00  0.00    +0.000 NA
BRANCH  15  16
ATOM     16  O1  UNL     1       6.213  69.602  63.694  0.00  0.00    +0.000 OA
ATOM     17  H   UNL     1       6.493  69.551  64.587  0.00  0.00    +0.000 HD
ENDBRANCH  15  16
ENDBRANCH  10  14
ENDBRANCH   1  11
BRANCH   6  18
ATOM     18  C13 UNL     1       4.042  65.507  65.999  0.00  0.00    +0.000 C 
ATOM     19  O2  UNL     1       3.274  64.603  66.321  0.00  0.00    +0.000 OA
BRANCH  18  20
ATOM     20  C14 UNL     1       4.924  65.444  64.756  0.00  0.00    +0.000 C 
BRANCH  20  21
ATOM     21  C15 UNL     1       4.273  64.938  63.461  0.00  0.00    +0.000 C 
ATOM     22  C16 UNL     1       4.615  63.478  63.161  0.00  0.00    +0.000 C 
ATOM     23  C17 UNL     1       4.565  65.834  62.259  0.00  0.00    +0.000 C 
ENDBRANCH  20  21
ENDBRANCH  18  20
ENDBRANCH   6  18
TORSDOF 6
ENDMDL
MODEL 3
REMARK VINA RESULT:   -10.000      1.437      2.182
REMARK INTER + INTRA:         -12.928
REMARK INTER:                 -11.961
REMARK INTRA:                  -0.966
REMARK UNBOUND:                 0.288
REMARK  Name = ligantes_geracao2\Derivado_005.pdb
REMARK  10 active torsions:
REMARK  status: ('A' for Active; 'I' for Inactive)
REMARK    1  A    between atoms: C1_1  and  C2_2
REMARK    2  A    between atoms: C4_4  and  C5_5
REMARK    3  A    between atoms: N1_6  and  O1_7
REMARK    4  A    between atoms: C6_8  and  C7_9
REMARK    5  A    between atoms: C10_12  and  C11_13
REMARK    6  A    between atoms: C12_14  and  C13_15
REMARK    7  A    between atoms: C13_15  and  C14_17
REMARK    8  A    between atoms: C14_17  and  C15_18
REMARK    9  A    between atoms: C15_18  and  C16_19
REMARK   10  A    between atoms: C15_18  and  C17_20
REMARK                            x       y       z     vdW  Elec       q    Type
REMARK                         _______ _______ _______ _____ _____    ______ ____
ROOT
ATOM      1  C7  UNL     1       4.489  68.279  65.077  0.00  0.00    +0.000 C 
ATOM      2  C8  UNL     1       5.581  68.117  63.997  0.00  0.00    +0.000 C 
ATOM      3  C9  UNL     1       4.965  68.633  62.690  0.00  0.00    +0.000 C 
ATOM      4  C10 UNL     1       3.516  69.012  63.020  0.00  0.00    +0.000 C 
ATOM      5  C11 UNL     1       2.561  68.844  61.848  0.00  0.00    +0.000 C 
ATOM      6  C12 UNL     1       3.171  68.209  64.282  0.00  0.00    +0.000 C 
ENDROOT
BRANCH   1  11
ATOM      7  C1  UNL     1       5.012  64.794  69.684  0.00  0.00    +0.000 C 
ATOM      8  C2  UNL     1       4.833  65.714  68.514  0.00  0.00    +0.000 C 
ATOM      9  C3  UNL     1       3.882  66.720  68.547  0.00  0.00    +0.000 C 
ATOM     10  C4  UNL     1       3.733  67.557  67.433  0.00  0.00    +0.000 C 
ATOM     11  C6  UNL     1       4.558  67.397  66.305  0.00  0.00    +0.000 C 
ATOM     12  C18 UNL     1       5.466  66.340  66.379  0.00  0.00    +0.000 C 
ATOM     13  N2  UNL     1       5.618  65.512  67.440  0.00  0.00    +0.000 NA
BRANCH  10  14
ATOM     14  C5  UNL     1       2.656  68.565  67.572  0.00  0.00    +0.000 C 
ATOM     15  N1  UNL     1       2.724  69.595  68.353  0.00  0.00    +0.000 NA
BRANCH  15  16
ATOM     16  O1  UNL     1       1.550  70.344  68.219  0.00  0.00    +0.000 OA
ATOM     17  H   UNL     1       1.216  70.543  67.366  0.00  0.00    +0.000 HD
ENDBRANCH  15  16
ENDBRANCH  10  14
ENDBRANCH   1  11
BRANCH   6  18
ATOM     18  C13 UNL     1       2.731  66.769  64.000  0.00  0.00    +0.000 C 
ATOM     19  O2  UNL     1       3.485  65.963  63.458  0.00  0.00    +0.000 OA
BRANCH  18  20
ATOM     20  C14 UNL     1       1.313  66.415  64.437  0.00  0.00    +0.000 C 
BRANCH  20  21
ATOM     21  C15 UNL     1       0.430  67.564  64.947  0.00  0.00    +0.000 C 
ATOM     22  C16 UNL     1      -0.446  67.153  66.129  0.00  0.00    +0.000 C 
ATOM     23  C17 UNL     1      -0.400  68.211  63.839  0.00  0.00    +0.000 C 
ENDBRANCH  20  21
ENDBRANCH  18  20
ENDBRANCH   6  18
TORSDOF 6
ENDMDL
MODEL 4
REMARK VINA RESULT:    -8.753      2.282      5.977
REMARK INTER + INTRA:         -11.280
REMARK INTER:                 -10.934
REMARK INTRA:                  -0.346
REMARK UNBOUND:                 0.288
REMARK  Name = ligantes_geracao2\Derivado_005.pdb
REMARK  10 active torsions:
REMARK  status: ('A' for Active; 'I' for Inactive)
REMARK    1  A    between atoms: C1_1  and  C2_2
REMARK    2  A    between atoms: C4_4  and  C5_5
REMARK    3  A    between atoms: N1_6  and  O1_7
REMARK    4  A    between atoms: C6_8  and  C7_9
REMARK    5  A    between atoms: C10_12  and  C11_13
REMARK    6  A    between atoms: C12_14  and  C13_15
REMARK    7  A    between atoms: C13_15  and  C14_17
REMARK    8  A    between atoms: C14_17  and  C15_18
REMARK    9  A    between atoms: C15_18  and  C16_19
REMARK   10  A    between atoms: C15_18  and  C17_20
REMARK                            x       y       z     vdW  Elec       q    Type
REMARK                         _______ _______ _______ _____ _____    ______ ____
ROOT
ATOM      1  C7  UNL     1       4.625  65.618  66.405  0.00  0.00    +0.000 C 
ATOM      2  C8  UNL     1       5.530  65.892  67.627  0.00  0.00    +0.000 C 
ATOM      3  C9  UNL     1       4.793  65.308  68.839  0.00  0.00    +0.000 C 
ATOM      4  C10 UNL     1       3.454  64.778  68.312  0.00  0.00    +0.000 C 
ATOM      5  C11 UNL     1       2.331  64.838  69.336  0.00  0.00    +0.000 C 
ATOM      6  C12 UNL     1       3.208  65.544  67.005  0.00  0.00    +0.000 C 
ENDROOT
BRANCH   1  11
ATOM      7  C1  UNL     1       5.309  69.232  61.921  0.00  0.00    +0.000 C 
ATOM      8  C2  UNL     1       5.116  68.262  63.047  0.00  0.00    +0.000 C 
ATOM      9  C3  UNL     1       4.841  66.930  62.789  0.00  0.00    +0.000 C 
ATOM     10  C4  UNL     1       4.655  66.050  63.864  0.00  0.00    +0.000 C 
ATOM     11  C6  UNL     1       4.774  66.507  65.189  0.00  0.00    +0.000 C 
ATOM     12  C18 UNL     1       5.035  67.871  65.325  0.00  0.00    +0.000 C 
ATOM     13  N2  UNL     1       5.205  68.740  64.301  0.00  0.00    +0.000 NA
BRANCH  10  14
ATOM     14  C5  UNL     1       4.324  64.662  63.462  0.00  0.00    +0.000 C 
ATOM     15  N1  UNL     1       5.178  63.834  62.951  0.00  0.00    +0.000 NA
BRANCH  15  16
ATOM     16  O1  UNL     1       4.537  62.613  62.714  0.00  0.00    +0.000 OA
ATOM     17  H   UNL     1       3.601  62.572  62.688  0.00  0.00    +0.000 HD
ENDBRANCH  15  16
ENDBRANCH  10  14
ENDBRANCH   1  11
BRANCH   6  18
ATOM     18  C13 UNL     1       2.583  66.928  67.205  0.00  0.00    +0.000 C 
ATOM     19  O2  UNL     1       2.929  67.661  68.129  0.00  0.00    +0.000 OA
BRANCH  18  20
ATOM     20  C14 UNL     1       1.516  67.323  66.188  0.00  0.00    +0.000 C 
BRANCH  20  21
ATOM     21  C15 UNL     1       0.144  67.738  66.739  0.00  0.00    +0.000 C 
ATOM     22  C16 UNL     1       0.086  69.216  67.123  0.00  0.00    +0.000 C 
ATOM     23  C17 UNL     1      -0.330  66.848  67.887  0.00  0.00    +0.000 C 
ENDBRANCH  20  21
ENDBRANCH  18  20
ENDBRANCH   6  18
TORSDOF 6
ENDMDL
MODEL 5
REMARK VINA RESULT:    -8.702      2.469      3.029
REMARK INTER + INTRA:         -11.213
REMARK INTER:                 -11.131
REMARK INTRA:                  -0.082
REMARK UNBOUND:                 0.288
REMARK  Name = ligantes_geracao2\Derivado_005.pdb
REMARK  10 active torsions:
REMARK  status: ('A' for Active; 'I' for Inactive)
REMARK    1  A    between atoms: C1_1  and  C2_2
REMARK    2  A    between atoms: C4_4  and  C5_5
REMARK    3  A    between atoms: N1_6  and  O1_7
REMARK    4  A    between atoms: C6_8  and  C7_9
REMARK    5  A    between atoms: C10_12  and  C11_13
REMARK    6  A    between atoms: C12_14  and  C13_15
REMARK    7  A    between atoms: C13_15  and  C14_17
REMARK    8  A    between atoms: C14_17  and  C15_18
REMARK    9  A    between atoms: C15_18  and  C16_19
REMARK   10  A    between atoms: C15_18  and  C17_20
REMARK                            x       y       z     vdW  Elec       q    Type
REMARK                         _______ _______ _______ _____ _____    ______ ____
ROOT
ATOM      1  C7  UNL     1       2.784  68.567  64.930  0.00  0.00    +0.000 C 
ATOM      2  C8  UNL     1       4.133  69.210  65.321  0.00  0.00    +0.000 C 
ATOM      3  C9  UNL     1       4.979  69.232  64.042  0.00  0.00    +0.000 C 
ATOM      4  C10 UNL     1       4.140  68.539  62.961  0.00  0.00    +0.000 C 
ATOM      5  C11 UNL     1       4.973  67.821  61.911  0.00  0.00    +0.000 C 
ATOM      6  C12 UNL     1       3.139  67.666  63.732  0.00  0.00    +0.000 C 
ENDROOT
BRANCH   1  11
ATOM      7  C1  UNL     1      -0.134  66.053  69.266  0.00  0.00    +0.000 C 
ATOM      8  C2  UNL     1       0.576  66.706  68.119  0.00  0.00    +0.000 C 
ATOM      9  C3  UNL     1      -0.139  67.248  67.064  0.00  0.00    +0.000 C 
ATOM     10  C4  UNL     1       0.555  67.841  66.002  0.00  0.00    +0.000 C 
ATOM     11  C6  UNL     1       1.960  67.912  66.017  0.00  0.00    +0.000 C 
ATOM     12  C18 UNL     1       2.572  67.317  67.121  0.00  0.00    +0.000 C 
ATOM     13  N2  UNL     1       1.921  66.727  68.152  0.00  0.00    +0.000 NA
BRANCH  10  14
ATOM     14  C5  UNL     1      -0.317  68.346  64.914  0.00  0.00    +0.000 C 
ATOM     15  N1  UNL     1      -0.449  67.766  63.764  0.00  0.00    +0.000 NA
BRANCH  15  16
ATOM     16  O1  UNL     1      -1.361  68.494  62.993  0.00  0.00    +0.000 OA
ATOM     17  H   UNL     1      -1.733  69.285  63.329  0.00  0.00    +0.000 HD
ENDBRANCH  15  16
ENDBRANCH  10  14
ENDBRANCH   1  11
BRANCH   6  18
ATOM     18  C13 UNL     1       3.704  66.310  64.164  0.00  0.00    +0.000 C 
ATOM     19  O2  UNL     1       4.850  66.200  64.595  0.00  0.00    +0.000 OA
BRANCH  18  20
ATOM     20  C14 UNL     1       2.753  65.125  64.024  0.00  0.00    +0.000 C 
BRANCH  20  21
ATOM     21  C15 UNL     1       3.311  63.735  64.365  0.00  0.00    +0.000 C 
ATOM     22  C16 UNL     1       3.626  63.576  65.852  0.00  0.00    +0.000 C 
ATOM     23  C17 UNL     1       4.509  63.348  63.499  0.00  0.00    +0.000 C 
ENDBRANCH  20  21
ENDBRANCH  18  20
ENDBRANCH   6  18
TORSDOF 6
ENDMDL
MODEL 6
REMARK VINA RESULT:    -8.654      2.180      4.089
REMARK INTER + INTRA:         -11.149
REMARK INTER:                 -11.136
REMARK INTRA:                  -0.013
REMARK UNBOUND:                 0.288
REMARK  Name = ligantes_geracao2\Derivado_005.pdb
REMARK  10 active torsions:
REMARK  status: ('A' for Active; 'I' for Inactive)
REMARK    1  A    between atoms: C1_1  and  C2_2
REMARK    2  A    between atoms: C4_4  and  C5_5
REMARK    3  A    between atoms: N1_6  and  O1_7
REMARK    4  A    between atoms: C6_8  and  C7_9
REMARK    5  A    between atoms: C10_12  and  C11_13
REMARK    6  A    between atoms: C12_14  and  C13_15
REMARK    7  A    between atoms: C13_15  and  C14_17
REMARK    8  A    between atoms: C14_17  and  C15_18
REMARK    9  A    between atoms: C15_18  and  C16_19
REMARK   10  A    between atoms: C15_18  and  C17_20
REMARK                            x       y       z     vdW  Elec       q    Type
REMARK                         _______ _______ _______ _____ _____    ______ ____
ROOT
ATOM      1  C7  UNL     1       3.630  68.087  63.971  0.00  0.00    +0.000 C 
ATOM      2  C8  UNL     1       3.916  67.387  62.623  0.00  0.00    +0.000 C 
ATOM      3  C9  UNL     1       2.943  68.005  61.611  0.00  0.00    +0.000 C 
ATOM      4  C10 UNL     1       2.070  68.988  62.399  0.00  0.00    +0.000 C 
ATOM      5  C11 UNL     1       0.666  69.143  61.835  0.00  0.00    +0.000 C 
ATOM      6  C12 UNL     1       2.154  68.515  63.858  0.00  0.00    +0.000 C 
ENDROOT
BRANCH   1  11
ATOM      7  C1  UNL     1       4.932  65.533  69.013  0.00  0.00    +0.000 C 
ATOM      8  C2  UNL     1       4.616  66.153  67.685  0.00  0.00    +0.000 C 
ATOM      9  C3  UNL     1       4.762  65.425  66.516  0.00  0.00    +0.000 C 
ATOM     10  C4  UNL     1       4.469  66.037  65.290  0.00  0.00    +0.000 C 
ATOM     11  C6  UNL     1       4.004  67.364  65.247  0.00  0.00    +0.000 C 
ATOM     12  C18 UNL     1       3.914  68.001  66.485  0.00  0.00    +0.000 C 
ATOM     13  N2  UNL     1       4.205  67.433  67.680  0.00  0.00    +0.000 NA
BRANCH  10  14
ATOM     14  C5  UNL     1       4.705  65.173  64.109  0.00  0.00    +0.000 C 
ATOM     15  N1  UNL     1       4.092  64.052  63.898  0.00  0.00    +0.000 NA
BRANCH  15  16
ATOM     16  O1  UNL     1       4.538  63.514  62.686  0.00  0.00    +0.000 OA
ATOM     17  H   UNL     1       5.381  63.109  62.635  0.00  0.00    +0.000 HD
ENDBRANCH  15  16
ENDBRANCH  10  14
ENDBRANCH   1  11
BRANCH   6  18
ATOM     18  C13 UNL     1       1.186  67.379  64.199  0.00  0.00    +0.000 C 
ATOM     19  O2  UNL     1       1.384  66.229  63.811  0.00  0.00    +0.000 OA
BRANCH  18  20
ATOM     20  C14 UNL     1      -0.023  67.773  65.043  0.00  0.00    +0.000 C 
BRANCH  20  21
ATOM     21  C15 UNL     1       0.142  67.718  66.569  0.00  0.00    +0.000 C 
ATOM     22  C16 UNL     1      -1.048  67.059  67.266  0.00  0.00    +0.000 C 
ATOM     23  C17 UNL     1       0.458  69.082  67.182  0.00  0.00    +0.000 C 
ENDBRANCH  20  21
ENDBRANCH  18  20
ENDBRANCH   6  18
TORSDOF 6
ENDMDL
MODEL 7
REMARK VINA RESULT:    -8.635      3.152      5.357
REMARK INTER + INTRA:         -11.124
REMARK INTER:                 -11.241
REMARK INTRA:                   0.117
REMARK UNBOUND:                 0.288
REMARK  Name = ligantes_geracao2\Derivado_005.pdb
REMARK  10 active torsions:
REMARK  status: ('A' for Active; 'I' for Inactive)
REMARK    1  A    between atoms: C1_1  and  C2_2
REMARK    2  A    between atoms: C4_4  and  C5_5
REMARK    3  A    between atoms: N1_6  and  O1_7
REMARK    4  A    between atoms: C6_8  and  C7_9
REMARK    5  A    between atoms: C10_12  and  C11_13
REMARK    6  A    between atoms: C12_14  and  C13_15
REMARK    7  A    between atoms: C13_15  and  C14_17
REMARK    8  A    between atoms: C14_17  and  C15_18
REMARK    9  A    between atoms: C15_18  and  C16_19
REMARK   10  A    between atoms: C15_18  and  C17_20
REMARK                            x       y       z     vdW  Elec       q    Type
REMARK                         _______ _______ _______ _____ _____    ______ ____
ROOT
ATOM      1  C7  UNL     1       2.506  66.822  64.214  0.00  0.00    +0.000 C 
ATOM      2  C8  UNL     1       3.362  67.593  63.185  0.00  0.00    +0.000 C 
ATOM      3  C9  UNL     1       4.824  67.293  63.540  0.00  0.00    +0.000 C 
ATOM      4  C10 UNL     1       4.788  66.423  64.802  0.00  0.00    +0.000 C 
ATOM      5  C11 UNL     1       5.998  66.610  65.705  0.00  0.00    +0.000 C 
ATOM      6  C12 UNL     1       3.424  66.709  65.446  0.00  0.00    +0.000 C 
ENDROOT
BRANCH   1  11
ATOM      7  C1  UNL     1      -2.827  68.665  65.559  0.00  0.00    +0.000 C 
ATOM      8  C2  UNL     1      -1.458  68.200  65.162  0.00  0.00    +0.000 C 
ATOM      9  C3  UNL     1      -0.980  68.428  63.883  0.00  0.00    +0.000 C 
ATOM     10  C4  UNL     1       0.299  67.971  63.540  0.00  0.00    +0.000 C 
ATOM     11  C6  UNL     1       1.101  67.314  64.490  0.00  0.00    +0.000 C 
ATOM     12  C18 UNL     1       0.507  67.125  65.739  0.00  0.00    +0.000 C 
ATOM     13  N2  UNL     1      -0.732  67.546  66.087  0.00  0.00    +0.000 NA
BRANCH  10  14
ATOM     14  C5  UNL     1       0.681  68.236  62.132  0.00  0.00    +0.000 C 
ATOM     15  N1  UNL     1       0.501  69.371  61.535  0.00  0.00    +0.000 NA
BRANCH  15  16
ATOM     16  O1  UNL     1       0.995  69.278  60.229  0.00  0.00    +0.000 OA
ATOM     17  H   UNL     1       1.591  69.925  59.907  0.00  0.00    +0.000 HD
ENDBRANCH  15  16
ENDBRANCH  10  14
ENDBRANCH   1  11
BRANCH   6  18
ATOM     18  C13 UNL     1       3.400  67.970  66.314  0.00  0.00    +0.000 C 
ATOM     19  O2  UNL     1       3.485  69.092  65.818  0.00  0.00    +0.000 OA
BRANCH  18  20
ATOM     20  C14 UNL     1       3.264  67.735  67.816  0.00  0.00    +0.000 C 
BRANCH  20  21
ATOM     21  C15 UNL     1       3.284  66.278  68.300  0.00  0.00    +0.000 C 
ATOM     22  C16 UNL     1       2.048  65.914  69.124  0.00  0.00    +0.000 C 
ATOM     23  C17 UNL     1       4.570  65.916  69.041  0.00  0.00    +0.000 C 
ENDBRANCH  20  21
ENDBRANCH  18  20
ENDBRANCH   6  18
TORSDOF 6
ENDMDL
MODEL 8
REMARK VINA RESULT:    -8.175      7.599     10.602
REMARK INTER + INTRA:         -10.516
REMARK INTER:                  -9.724
REMARK INTRA:                  -0.792
REMARK UNBOUND:                 0.288
REMARK  Name = ligantes_geracao2\Derivado_005.pdb
REMARK  10 active torsions:
REMARK  status: ('A' for Active; 'I' for Inactive)
REMARK    1  A    between atoms: C1_1  and  C2_2
REMARK    2  A    between atoms: C4_4  and  C5_5
REMARK    3  A    between atoms: N1_6  and  O1_7
REMARK    4  A    between atoms: C6_8  and  C7_9
REMARK    5  A    between atoms: C10_12  and  C11_13
REMARK    6  A    between atoms: C12_14  and  C13_15
REMARK    7  A    between atoms: C13_15  and  C14_17
REMARK    8  A    between atoms: C14_17  and  C15_18
REMARK    9  A    between atoms: C15_18  and  C16_19
REMARK   10  A    between atoms: C15_18  and  C17_20
REMARK                            x       y       z     vdW  Elec       q    Type
REMARK                         _______ _______ _______ _____ _____    ______ ____
ROOT
ATOM      1  C7  UNL     1       0.292  60.390  71.615  0.00  0.00    +0.000 C 
ATOM      2  C8  UNL     1      -0.814  61.358  72.092  0.00  0.00    +0.000 C 
ATOM      3  C9  UNL     1      -0.663  62.626  71.243  0.00  0.00    +0.000 C 
ATOM      4  C10 UNL     1       0.563  62.401  70.350  0.00  0.00    +0.000 C 
ATOM      5  C11 UNL     1       1.306  63.681  70.001  0.00  0.00    +0.000 C 
ATOM      6  C12 UNL     1       1.389  61.325  71.070  0.00  0.00    +0.000 C 
ENDROOT
BRANCH   1  11
ATOM      7  C1  UNL     1       1.888  56.348  75.456  0.00  0.00    +0.000 C 
ATOM      8  C2  UNL     1       1.512  57.376  74.432  0.00  0.00    +0.000 C 
ATOM      9  C3  UNL     1       2.043  57.323  73.154  0.00  0.00    +0.000 C 
ATOM     10  C4  UNL     1       1.680  58.305  72.222  0.00  0.00    +0.000 C 
ATOM     11  C6  UNL     1       0.765  59.316  72.570  0.00  0.00    +0.000 C 
ATOM     12  C18 UNL     1       0.311  59.277  73.889  0.00  0.00    +0.000 C 
ATOM     13  N2  UNL     1       0.660  58.346  74.808  0.00  0.00    +0.000 NA
BRANCH  10  14
ATOM     14  C5  UNL     1       2.347  58.167  70.905  0.00  0.00    +0.000 C 
ATOM     15  N1  UNL     1       3.628  58.070  70.749  0.00  0.00    +0.000 NA
BRANCH  15  16
ATOM     16  O1  UNL     1       3.909  57.931  69.386  0.00  0.00    +0.000 OA
ATOM     17  H   UNL     1       4.471  58.547  68.958  0.00  0.00    +0.000 HD
ENDBRANCH  15  16
ENDBRANCH  10  14
ENDBRANCH   1  11
BRANCH   6  18
ATOM     18  C13 UNL     1       2.295  61.875  72.176  0.00  0.00    +0.000 C 
ATOM     19  O2  UNL     1       1.850  62.587  73.074  0.00  0.00    +0.000 OA
BRANCH  18  20
ATOM     20  C14 UNL     1       3.765  61.478  72.082  0.00  0.00    +0.000 C 
BRANCH  20  21
ATOM     21  C15 UNL     1       4.414  61.520  70.691  0.00  0.00    +0.000 C 
ATOM     22  C16 UNL     1       5.728  60.743  70.630  0.00  0.00    +0.000 C 
ATOM     23  C17 UNL     1       4.585  62.942  70.158  0.00  0.00    +0.000 C 
ENDBRANCH  20  21
ENDBRANCH  18  20
ENDBRANCH   6  18
TORSDOF 6
ENDMDL
MODEL 9
REMARK VINA RESULT:    -7.822      7.244      9.872
REMARK INTER + INTRA:         -10.049
REMARK INTER:                  -8.897
REMARK INTRA:                  -1.152
REMARK UNBOUND:                 0.288
REMARK  Name = ligantes_geracao2\Derivado_005.pdb
REMARK  10 active torsions:
REMARK  status: ('A' for Active; 'I' for Inactive)
REMARK    1  A    between atoms: C1_1  and  C2_2
REMARK    2  A    between atoms: C4_4  and  C5_5
REMARK    3  A    between atoms: N1_6  and  O1_7
REMARK    4  A    between atoms: C6_8  and  C7_9
REMARK    5  A    between atoms: C10_12  and  C11_13
REMARK    6  A    between atoms: C12_14  and  C13_15
REMARK    7  A    between atoms: C13_15  and  C14_17
REMARK    8  A    between atoms: C14_17  and  C15_18
REMARK    9  A    between atoms: C15_18  and  C16_19
REMARK   10  A    between atoms: C15_18  and  C17_20
REMARK                            x       y       z     vdW  Elec       q    Type
REMARK                         _______ _______ _______ _____ _____    ______ ____
ROOT
ATOM      1  C7  UNL     1       3.671  60.540  71.793  0.00  0.00    +0.000 C 
ATOM      2  C8  UNL     1       4.863  60.099  70.915  0.00  0.00    +0.000 C 
ATOM      3  C9  UNL     1       5.397  61.376  70.253  0.00  0.00    +0.000 C 
ATOM      4  C10 UNL     1       4.467  62.511  70.698  0.00  0.00    +0.000 C 
ATOM      5  C11 UNL     1       4.336  63.627  69.673  0.00  0.00    +0.000 C 
ATOM      6  C12 UNL     1       3.158  61.818  71.102  0.00  0.00    +0.000 C 
ENDROOT
BRANCH   1  11
ATOM      7  C1  UNL     1      -0.263  56.425  72.901  0.00  0.00    +0.000 C 
ATOM      8  C2  UNL     1       0.733  57.517  72.652  0.00  0.00    +0.000 C 
ATOM      9  C3  UNL     1       0.850  58.578  73.534  0.00  0.00    +0.000 C 
ATOM     10  C4  UNL     1       1.784  59.588  73.268  0.00  0.00    +0.000 C 
ATOM     11  C6  UNL     1       2.613  59.513  72.134  0.00  0.00    +0.000 C 
ATOM     12  C18 UNL     1       2.393  58.409  71.310  0.00  0.00    +0.000 C 
ATOM     13  N2  UNL     1       1.487  57.429  71.542  0.00  0.00    +0.000 NA
BRANCH  10  14
ATOM     14  C5  UNL     1       1.785  60.690  74.260  0.00  0.00    +0.000 C 
ATOM     15  N1  UNL     1       0.839  60.890  75.120  0.00  0.00    +0.000 NA
BRANCH  15  16
ATOM     16  O1  UNL     1       1.173  61.994  75.912  0.00  0.00    +0.000 OA
ATOM     17  H   UNL     1       0.971  61.993  76.827  0.00  0.00    +0.000 HD
ENDBRANCH  15  16
ENDBRANCH  10  14
ENDBRANCH   1  11
BRANCH   6  18
ATOM     18  C13 UNL     1       2.227  61.516  69.924  0.00  0.00    +0.000 C 
ATOM     19  O2  UNL     1       2.600  60.835  68.970  0.00  0.00    +0.000 OA
BRANCH  18  20
ATOM     20  C14 UNL     1       0.825  62.110  70.021  0.00  0.00    +0.000 C 
BRANCH  20  21
ATOM     21  C15 UNL     1       0.336  62.524  71.417  0.00  0.00    +0.000 C 
ATOM     22  C16 UNL     1      -0.918  61.765  71.850  0.00  0.00    +0.000 C 
ATOM     23  C17 UNL     1       0.147  64.034  71.557  0.00  0.00    +0.000 C 
ENDBRANCH  20  21
ENDBRANCH  18  20
ENDBRANCH   6  18
TORSDOF 6
ENDMDL
