MODEL 1
REMARK VINA RESULT:    -5.912      0.000      0.000
REMARK INTER + INTRA:          -8.572
REMARK INTER:                  -7.295
REMARK INTRA:                  -1.277
REMARK UNBOUND:                -1.277
REMARK  Name = ligantes_geracao2\Derivado_023.pdb
REMARK  5 active torsions:
REMARK  status: ('A' for Active; 'I' for Inactive)
REMARK    1  A    between atoms: C1_1  and  C2_2
REMARK    2  A    between atoms: C2_2  and  C3_3
REMARK    3  A    between atoms: C3_3  and  C4_5
REMARK    4  A    between atoms: C8_10  and  C9_11
REMARK    5  A    between atoms: C13_16  and  C14_17
REMARK                            x       y       z     vdW  Elec       q    Type
REMARK                         _______ _______ _______ _____ _____    ______ ____
ROOT
ATOM      1  C4  UNL     1      20.160  18.475  21.193  0.00  0.00    +0.000 C 
ATOM      2  C5  UNL     1      21.342  18.398  22.153  0.00  0.00    +0.000 C 
ATOM      3  F1  UNL     1      21.629  17.097  22.431  0.00  0.00    +0.000 F 
ATOM      4  C6  UNL     1      22.508  18.972  21.375  0.00  0.00    +0.000 C 
ATOM      5  C7  UNL     1      22.295  18.371  19.990  0.00  0.00    +0.000 C 
ATOM      6  C8  UNL     1      20.769  18.417  19.764  0.00  0.00    +0.000 C 
ENDROOT
BRANCH   6   7
ATOM      7  C9  UNL     1      20.249  19.575  18.915  0.00  0.00    +0.000 C 
ATOM      8  C10 UNL     1      19.834  20.783  19.479  0.00  0.00    +0.000 C 
ATOM      9  N1  UNL     1      19.324  21.830  18.791  0.00  0.00    +0.000 NA
ATOM     10  C11 UNL     1      19.213  21.685  17.459  0.00  0.00    +0.000 C 
ATOM     11  C12 UNL     1      19.583  20.538  16.786  0.00  0.00    +0.000 C 
ATOM     12  C13 UNL     1      20.104  19.463  17.517  0.00  0.00    +0.000 C 
BRANCH  12  13
ATOM     13  C14 UNL     1      20.501  18.256  16.783  0.00  0.00    +0.000 C 
ATOM     14  C15 UNL     1      19.656  17.269  16.485  0.00  0.00    +0.000 C 
ATOM     15  F2  UNL     1      18.360  17.285  16.840  0.00  0.00    +0.000 F 
ENDBRANCH  12  13
ENDBRANCH   6   7
BRANCH   1  16
ATOM     16  C3  UNL     1      19.162  17.362  21.486  0.00  0.00    +0.000 C 
ATOM     17  O1  UNL     1      18.356  17.419  22.417  0.00  0.00    +0.000 OA
BRANCH  16  19
ATOM     18  C1  UNL     1      19.522  14.884  21.327  0.00  0.00    +0.000 C 
ATOM     19  C2  UNL     1      19.184  16.153  20.569  0.00  0.00    +0.000 C 
ENDBRANCH  16  19
ENDBRANCH   1  16
TORSDOF 4
ENDMDL
MODEL 2
REMARK VINA RESULT:    -5.872      1.800      2.394
REMARK INTER + INTRA:          -8.522
REMARK INTER:                  -7.279
REMARK INTRA:                  -1.243
REMARK UNBOUND:                -1.277
REMARK  Name = ligantes_geracao2\Derivado_023.pdb
REMARK  5 active torsions:
REMARK  status: ('A' for Active; 'I' for Inactive)
REMARK    1  A    between atoms: C1_1  and  C2_2
REMARK    2  A    between atoms: C2_2  and  C3_3
REMARK    3  A    between atoms: C3_3  and  C4_5
REMARK    4  A    between atoms: C8_10  and  C9_11
REMARK    5  A    between atoms: C13_16  and  C14_17
REMARK                            x       y       z     vdW  Elec       q    Type
REMARK                         _______ _______ _______ _____ _____    ______ ____
ROOT
ATOM      1  C4  UNL     1      20.916  19.465  19.466  0.00  0.00    +0.000 C 
ATOM      2  C5  UNL     1      22.354  19.878  19.762  0.00  0.00    +0.000 C 
ATOM      3  F1  UNL     1      22.917  19.001  20.636  0.00  0.00    +0.000 F 
ATOM      4  C6  UNL     1      23.074  19.736  18.437  0.00  0.00    +0.000 C 
ATOM      5  C7  UNL     1      22.492  18.436  17.892  0.00  0.00    +0.000 C 
ATOM      6  C8  UNL     1      20.995  18.483  18.264  0.00  0.00    +0.000 C 
ENDROOT
BRANCH   6   7
ATOM      7  C9  UNL     1      20.040  18.919  17.155  0.00  0.00    +0.000 C 
ATOM      8  C10 UNL     1      19.743  20.262  16.915  0.00  0.00    +0.000 C 
ATOM      9  N1  UNL     1      18.876  20.714  15.980  0.00  0.00    +0.000 NA
ATOM     10  C11 UNL     1      18.256  19.788  15.229  0.00  0.00    +0.000 C 
ATOM     11  C12 UNL     1      18.459  18.430  15.375  0.00  0.00    +0.000 C 
ATOM     12  C13 UNL     1      19.358  17.982  16.352  0.00  0.00    +0.000 C 
BRANCH  12  13
ATOM     13  C14 UNL     1      19.569  16.536  16.485  0.00  0.00    +0.000 C 
ATOM     14  C15 UNL     1      18.634  15.697  16.932  0.00  0.00    +0.000 C 
ATOM     15  F2  UNL     1      17.410  16.103  17.311  0.00  0.00    +0.000 F 
ENDBRANCH  12  13
ENDBRANCH   6   7
BRANCH   1  16
ATOM     16  C3  UNL     1      20.267  18.870  20.709  0.00  0.00    +0.000 C 
ATOM     17  O1  UNL     1      19.890  19.560  21.659  0.00  0.00    +0.000 OA
BRANCH  16  19
ATOM     18  C1  UNL     1      20.884  16.729  21.864  0.00  0.00    +0.000 C 
ATOM     19  C2  UNL     1      20.085  17.363  20.743  0.00  0.00    +0.000 C 
ENDBRANCH  16  19
ENDBRANCH   1  16
TORSDOF 4
ENDMDL
MODEL 3
REMARK VINA RESULT:    -5.740     23.060     25.233
REMARK INTER + INTRA:          -8.359
REMARK INTER:                  -7.012
REMARK INTRA:                  -1.347
REMARK UNBOUND:                -1.277
REMARK  Name = ligantes_geracao2\Derivado_023.pdb
REMARK  5 active torsions:
REMARK  status: ('A' for Active; 'I' for Inactive)
REMARK    1  A    between atoms: C1_1  and  C2_2
REMARK    2  A    between atoms: C2_2  and  C3_3
REMARK    3  A    between atoms: C3_3  and  C4_5
REMARK    4  A    between atoms: C8_10  and  C9_11
REMARK    5  A    between atoms: C13_16  and  C14_17
REMARK                            x       y       z     vdW  Elec       q    Type
REMARK                         _______ _______ _______ _____ _____    ______ ____
ROOT
ATOM      1  C4  UNL     1       0.762   2.291  18.752  0.00  0.00    +0.000 C 
ATOM      2  C5  UNL     1       0.463   2.006  17.284  0.00  0.00    +0.000 C 
ATOM      3  F1  UNL     1       0.921   3.027  16.511  0.00  0.00    +0.000 F 
ATOM      4  C6  UNL     1       1.283   0.775  16.957  0.00  0.00    +0.000 C 
ATOM      5  C7  UNL     1       2.594   1.061  17.680  0.00  0.00    +0.000 C 
ATOM      6  C8  UNL     1       2.180   1.711  19.017  0.00  0.00    +0.000 C 
ENDROOT
BRANCH   6   7
ATOM      7  C9  UNL     1       2.161   0.791  20.235  0.00  0.00    +0.000 C 
ATOM      8  C10 UNL     1       1.267  -0.276  20.347  0.00  0.00    +0.000 C 
ATOM      9  N1  UNL     1       1.168  -1.102  21.414  0.00  0.00    +0.000 NA
ATOM     10  C11 UNL     1       2.001  -0.866  22.443  0.00  0.00    +0.000 C 
ATOM     11  C12 UNL     1       2.924   0.161  22.455  0.00  0.00    +0.000 C 
ATOM     12  C13 UNL     1       3.007   1.008  21.342  0.00  0.00    +0.000 C 
BRANCH  12  13
ATOM     13  C14 UNL     1       4.000   2.087  21.368  0.00  0.00    +0.000 C 
ATOM     14  C15 UNL     1       3.877   3.178  22.125  0.00  0.00    +0.000 C 
ATOM     15  F2  UNL     1       2.821   3.393  22.929  0.00  0.00    +0.000 F 
ENDBRANCH  12  13
ENDBRANCH   6   7
BRANCH   1  16
ATOM     16  C3  UNL     1       0.640   3.782  19.040  0.00  0.00    +0.000 C 
ATOM     17  O1  UNL     1      -0.448   4.353  19.147  0.00  0.00    +0.000 OA
BRANCH  16  19
ATOM     18  C1  UNL     1       1.820   5.596  20.311  0.00  0.00    +0.000 C 
ATOM     19  C2  UNL     1       1.930   4.565  19.205  0.00  0.00    +0.000 C 
ENDBRANCH  16  19
ENDBRANCH   1  16
TORSDOF 4
ENDMDL
MODEL 4
REMARK VINA RESULT:    -5.692     24.398     26.792
REMARK INTER + INTRA:          -8.300
REMARK INTER:                  -6.917
REMARK INTRA:                  -1.383
REMARK UNBOUND:                -1.277
REMARK  Name = ligantes_geracao2\Derivado_023.pdb
REMARK  5 active torsions:
REMARK  status: ('A' for Active; 'I' for Inactive)
REMARK    1  A    between atoms: C1_1  and  C2_2
REMARK    2  A    between atoms: C2_2  and  C3_3
REMARK    3  A    between atoms: C3_3  and  C4_5
REMARK    4  A    between atoms: C8_10  and  C9_11
REMARK    5  A    between atoms: C13_16  and  C14_17
REMARK                            x       y       z     vdW  Elec       q    Type
REMARK                         _______ _______ _______ _____ _____    ______ ____
ROOT
ATOM      1  C4  UNL     1       1.368   1.664  19.675  0.00  0.00    +0.000 C 
ATOM      2  C5  UNL     1       1.667   2.271  18.309  0.00  0.00    +0.000 C 
ATOM      3  F1  UNL     1       2.998   2.530  18.198  0.00  0.00    +0.000 F 
ATOM      4  C6  UNL     1       1.325   1.176  17.319  0.00  0.00    +0.000 C 
ATOM      5  C7  UNL     1       1.876  -0.066  18.011  0.00  0.00    +0.000 C 
ATOM      6  C8  UNL     1       1.542   0.129  19.505  0.00  0.00    +0.000 C 
ENDROOT
BRANCH   6   7
ATOM      7  C9  UNL     1       0.308  -0.609  20.020  0.00  0.00    +0.000 C 
ATOM      8  C10 UNL     1      -0.975  -0.064  19.931  0.00  0.00    +0.000 C 
ATOM      9  N1  UNL     1      -2.102  -0.643  20.405  0.00  0.00    +0.000 NA
ATOM     10  C11 UNL     1      -1.965  -1.836  21.008  0.00  0.00    +0.000 C 
ATOM     11  C12 UNL     1      -0.750  -2.474  21.163  0.00  0.00    +0.000 C 
ATOM     12  C13 UNL     1       0.406  -1.856  20.671  0.00  0.00    +0.000 C 
BRANCH  12  13
ATOM     13  C14 UNL     1       1.687  -2.553  20.836  0.00  0.00    +0.000 C 
ATOM     14  C15 UNL     1       2.494  -2.364  21.880  0.00  0.00    +0.000 C 
ATOM     15  F2  UNL     1       2.212  -1.505  22.875  0.00  0.00    +0.000 F 
ENDBRANCH  12  13
ENDBRANCH   6   7
BRANCH   1  16
ATOM     16  C3  UNL     1       2.272   2.275  20.738  0.00  0.00    +0.000 C 
ATOM     17  O1  UNL     1       2.211   3.464  21.061  0.00  0.00    +0.000 OA
BRANCH  16  19
ATOM     18  C1  UNL     1       3.375   1.634  22.899  0.00  0.00    +0.000 C 
ATOM     19  C2  UNL     1       3.271   1.353  21.413  0.00  0.00    +0.000 C 
ENDBRANCH  16  19
ENDBRANCH   1  16
TORSDOF 4
ENDMDL
MODEL 5
REMARK VINA RESULT:    -5.690     24.916     27.297
REMARK INTER + INTRA:          -8.297
REMARK INTER:                  -6.946
REMARK INTRA:                  -1.351
REMARK UNBOUND:                -1.277
REMARK  Name = ligantes_geracao2\Derivado_023.pdb
REMARK  5 active torsions:
REMARK  status: ('A' for Active; 'I' for Inactive)
REMARK    1  A    between atoms: C1_1  and  C2_2
REMARK    2  A    between atoms: C2_2  and  C3_3
REMARK    3  A    between atoms: C3_3  and  C4_5
REMARK    4  A    between atoms: C8_10  and  C9_11
REMARK    5  A    between atoms: C13_16  and  C14_17
REMARK                            x       y       z     vdW  Elec       q    Type
REMARK                         _______ _______ _______ _____ _____    ______ ____
ROOT
ATOM      1  C4  UNL     1       1.305  -2.469  20.522  0.00  0.00    +0.000 C 
ATOM      2  C5  UNL     1       0.005  -3.187  20.868  0.00  0.00    +0.000 C 
ATOM      3  F1  UNL     1      -0.644  -2.517  21.859  0.00  0.00    +0.000 F 
ATOM      4  C6  UNL     1      -0.836  -3.083  19.612  0.00  0.00    +0.000 C 
ATOM      5  C7  UNL     1      -0.566  -1.652  19.161  0.00  0.00    +0.000 C 
ATOM      6  C8  UNL     1       0.937  -1.427  19.429  0.00  0.00    +0.000 C 
ENDROOT
BRANCH   6   7
ATOM      7  C9  UNL     1       1.864  -1.569  18.223  0.00  0.00    +0.000 C 
ATOM      8  C10 UNL     1       2.446  -2.788  17.872  0.00  0.00    +0.000 C 
ATOM      9  N1  UNL     1       3.307  -2.975  16.845  0.00  0.00    +0.000 NA
ATOM     10  C11 UNL     1       3.621  -1.892  16.112  0.00  0.00    +0.000 C 
ATOM     11  C12 UNL     1       3.117  -0.632  16.364  0.00  0.00    +0.000 C 
ATOM     12  C13 UNL     1       2.230  -0.459  17.434  0.00  0.00    +0.000 C 
BRANCH  12  13
ATOM     13  C14 UNL     1       1.697   0.886  17.680  0.00  0.00    +0.000 C 
ATOM     14  C15 UNL     1       2.290   1.774  18.478  0.00  0.00    +0.000 C 
ATOM     15  F2  UNL     1       3.430   1.514  19.141  0.00  0.00    +0.000 F 
ENDBRANCH  12  13
ENDBRANCH   6   7
BRANCH   1  16
ATOM     16  C3  UNL     1       1.926  -1.861  21.772  0.00  0.00    +0.000 C 
ATOM     17  O1  UNL     1       2.564  -2.527  22.591  0.00  0.00    +0.000 OA
BRANCH  16  19
ATOM     18  C1  UNL     1       3.068   0.338  22.173  0.00  0.00    +0.000 C 
ATOM     19  C2  UNL     1       1.740  -0.369  21.984  0.00  0.00    +0.000 C 
ENDBRANCH  16  19
ENDBRANCH   1  16
TORSDOF 4
ENDMDL
MODEL 6
REMARK VINA RESULT:    -5.627     29.020     31.432
REMARK INTER + INTRA:          -8.220
REMARK INTER:                  -6.788
REMARK INTRA:                  -1.432
REMARK UNBOUND:                -1.277
REMARK  Name = ligantes_geracao2\Derivado_023.pdb
REMARK  5 active torsions:
REMARK  status: ('A' for Active; 'I' for Inactive)
REMARK    1  A    between atoms: C1_1  and  C2_2
REMARK    2  A    between atoms: C2_2  and  C3_3
REMARK    3  A    between atoms: C3_3  and  C4_5
REMARK    4  A    between atoms: C8_10  and  C9_11
REMARK    5  A    between atoms: C13_16  and  C14_17
REMARK                            x       y       z     vdW  Elec       q    Type
REMARK                         _______ _______ _______ _____ _____    ______ ____
ROOT
ATOM      1  C4  UNL     1      16.168  -7.877   2.900  0.00  0.00    +0.000 C 
ATOM      2  C5  UNL     1      15.181  -8.949   2.448  0.00  0.00    +0.000 C 
ATOM      3  F1  UNL     1      14.330  -8.434   1.521  0.00  0.00    +0.000 F 
ATOM      4  C6  UNL     1      16.037  -9.993   1.761  0.00  0.00    +0.000 C 
ATOM      5  C7  UNL     1      17.021  -9.135   0.974  0.00  0.00    +0.000 C 
ATOM      6  C8  UNL     1      17.366  -7.960   1.914  0.00  0.00    +0.000 C 
ENDROOT
BRANCH   6   7
ATOM      7  C9  UNL     1      18.682  -8.076   2.680  0.00  0.00    +0.000 C 
ATOM      8  C10 UNL     1      18.821  -8.901   3.798  0.00  0.00    +0.000 C 
ATOM      9  N1  UNL     1      19.942  -9.017   4.547  0.00  0.00    +0.000 NA
ATOM     10  C11 UNL     1      20.999  -8.274   4.176  0.00  0.00    +0.000 C 
ATOM     11  C12 UNL     1      20.984  -7.416   3.095  0.00  0.00    +0.000 C 
ATOM     12  C13 UNL     1      19.812  -7.306   2.335  0.00  0.00    +0.000 C 
BRANCH  12  13
ATOM     13  C14 UNL     1      19.817  -6.397   1.184  0.00  0.00    +0.000 C 
ATOM     14  C15 UNL     1      19.717  -5.072   1.296  0.00  0.00    +0.000 C 
ATOM     15  F2  UNL     1      19.592  -4.447   2.479  0.00  0.00    +0.000 F 
ENDBRANCH  12  13
ENDBRANCH   6   7
BRANCH   1  16
ATOM     16  C3  UNL     1      15.491  -6.513   2.939  0.00  0.00    +0.000 C 
ATOM     17  O1  UNL     1      14.628  -6.221   3.769  0.00  0.00    +0.000 OA
BRANCH  16  19
ATOM     18  C1  UNL     1      16.246  -4.154   2.538  0.00  0.00    +0.000 C 
ATOM     19  C2  UNL     1      15.928  -5.493   1.903  0.00  0.00    +0.000 C 
ENDBRANCH  16  19
ENDBRANCH   1  16
TORSDOF 4
ENDMDL
MODEL 7
REMARK VINA RESULT:    -5.625     22.717     24.494
REMARK INTER + INTRA:          -8.218
REMARK INTER:                  -7.031
REMARK INTRA:                  -1.186
REMARK UNBOUND:                -1.277
REMARK  Name = ligantes_geracao2\Derivado_023.pdb
REMARK  5 active torsions:
REMARK  status: ('A' for Active; 'I' for Inactive)
REMARK    1  A    between atoms: C1_1  and  C2_2
REMARK    2  A    between atoms: C2_2  and  C3_3
REMARK    3  A    between atoms: C3_3  and  C4_5
REMARK    4  A    between atoms: C8_10  and  C9_11
REMARK    5  A    between atoms: C13_16  and  C14_17
REMARK                            x       y       z     vdW  Elec       q    Type
REMARK                         _______ _______ _______ _____ _____    ______ ____
ROOT
ATOM      1  C4  UNL     1       1.647   1.266  21.347  0.00  0.00    +0.000 C 
ATOM      2  C5  UNL     1       2.225   0.419  22.476  0.00  0.00    +0.000 C 
ATOM      3  F1  UNL     1       2.555  -0.815  22.007  0.00  0.00    +0.000 F 
ATOM      4  C6  UNL     1       3.508   1.123  22.866  0.00  0.00    +0.000 C 
ATOM      5  C7  UNL     1       4.082   1.520  21.511  0.00  0.00    +0.000 C 
ATOM      6  C8  UNL     1       2.862   1.965  20.676  0.00  0.00    +0.000 C 
ENDROOT
BRANCH   6   7
ATOM      7  C9  UNL     1       2.626   3.470  20.580  0.00  0.00    +0.000 C 
ATOM      8  C10 UNL     1       2.831   4.326  21.664  0.00  0.00    +0.000 C 
ATOM      9  N1  UNL     1       2.600   5.659  21.660  0.00  0.00    +0.000 NA
ATOM     10  C11 UNL     1       2.136   6.191  20.516  0.00  0.00    +0.000 C 
ATOM     11  C12 UNL     1       1.888   5.449  19.378  0.00  0.00    +0.000 C 
ATOM     12  C13 UNL     1       2.128   4.070  19.404  0.00  0.00    +0.000 C 
BRANCH  12  13
ATOM     13  C14 UNL     1       1.868   3.300  18.183  0.00  0.00    +0.000 C 
ATOM     14  C15 UNL     1       0.644   2.950  17.784  0.00  0.00    +0.000 C 
ATOM     15  F2  UNL     1      -0.466   3.265  18.474  0.00  0.00    +0.000 F 
ENDBRANCH  12  13
ENDBRANCH   6   7
BRANCH   1  16
ATOM     16  C3  UNL     1       0.829   0.400  20.397  0.00  0.00    +0.000 C 
ATOM     17  O1  UNL     1      -0.359   0.134  20.594  0.00  0.00    +0.000 OA
BRANCH  16  19
ATOM     18  C1  UNL     1       1.454  -1.645  19.084  0.00  0.00    +0.000 C 
ATOM     19  C2  UNL     1       1.535  -0.133  19.163  0.00  0.00    +0.000 C 
ENDBRANCH  16  19
ENDBRANCH   1  16
TORSDOF 4
ENDMDL
MODEL 8
REMARK VINA RESULT:    -5.624     24.304     26.872
REMARK INTER + INTRA:          -8.216
REMARK INTER:                  -7.078
REMARK INTRA:                  -1.138
REMARK UNBOUND:                -1.277
REMARK  Name = ligantes_geracao2\Derivado_023.pdb
REMARK  5 active torsions:
REMARK  status: ('A' for Active; 'I' for Inactive)
REMARK    1  A    between atoms: C1_1  and  C2_2
REMARK    2  A    between atoms: C2_2  and  C3_3
REMARK    3  A    between atoms: C3_3  and  C4_5
REMARK    4  A    between atoms: C8_10  and  C9_11
REMARK    5  A    between atoms: C13_16  and  C14_17
REMARK                            x       y       z     vdW  Elec       q    Type
REMARK                         _______ _______ _______ _____ _____    ______ ____
ROOT
ATOM      1  C4  UNL     1       2.248  -0.678  20.724  0.00  0.00    +0.000 C 
ATOM      2  C5  UNL     1       2.248  -1.127  22.181  0.00  0.00    +0.000 C 
ATOM      3  F1  UNL     1       1.328  -0.415  22.886  0.00  0.00    +0.000 F 
ATOM      4  C6  UNL     1       1.785  -2.568  22.139  0.00  0.00    +0.000 C 
ATOM      5  C7  UNL     1       0.668  -2.516  21.102  0.00  0.00    +0.000 C 
ATOM      6  C8  UNL     1       1.183  -1.556  20.009  0.00  0.00    +0.000 C 
ENDROOT
BRANCH   6   7
ATOM      7  C9  UNL     1       1.778  -2.210  18.764  0.00  0.00    +0.000 C 
ATOM      8  C10 UNL     1       2.504  -3.401  18.825  0.00  0.00    +0.000 C 
ATOM      9  N1  UNL     1       3.093  -4.010  17.771  0.00  0.00    +0.000 NA
ATOM     10  C11 UNL     1       2.963  -3.412  16.574  0.00  0.00    +0.000 C 
ATOM     11  C12 UNL     1       2.275  -2.230  16.386  0.00  0.00    +0.000 C 
ATOM     12  C13 UNL     1       1.677  -1.612  17.491  0.00  0.00    +0.000 C 
BRANCH  12  13
ATOM     13  C14 UNL     1       0.942  -0.362  17.271  0.00  0.00    +0.000 C 
ATOM     14  C15 UNL     1       1.538   0.816  17.084  0.00  0.00    +0.000 C 
ATOM     15  F2  UNL     1       2.874   0.967  17.093  0.00  0.00    +0.000 F 
ENDBRANCH  12  13
ENDBRANCH   6   7
BRANCH   1  16
ATOM     16  C3  UNL     1       1.982   0.819  20.628  0.00  0.00    +0.000 C 
ATOM     17  O1  UNL     1       0.844   1.289  20.559  0.00  0.00    +0.000 OA
BRANCH  16  19
ATOM     18  C1  UNL     1       3.564   2.168  22.033  0.00  0.00    +0.000 C 
ATOM     19  C2  UNL     1       3.188   1.740  20.628  0.00  0.00    +0.000 C 
ENDBRANCH  16  19
ENDBRANCH   1  16
TORSDOF 4
ENDMDL
MODEL 9
REMARK VINA RESULT:    -5.473     24.118     26.666
REMARK INTER + INTRA:          -8.029
REMARK INTER:                  -6.620
REMARK INTRA:                  -1.409
REMARK UNBOUND:                -1.277
REMARK  Name = ligantes_geracao2\Derivado_023.pdb
REMARK  5 active torsions:
REMARK  status: ('A' for Active; 'I' for Inactive)
REMARK    1  A    between atoms: C1_1  and  C2_2
REMARK    2  A    between atoms: C2_2  and  C3_3
REMARK    3  A    between atoms: C3_3  and  C4_5
REMARK    4  A    between atoms: C8_10  and  C9_11
REMARK    5  A    between atoms: C13_16  and  C14_17
REMARK                            x       y       z     vdW  Elec       q    Type
REMARK                         _______ _______ _______ _____ _____    ______ ____
ROOT
ATOM      1  C4  UNL     1      -0.088  -0.959  20.808  0.00  0.00    +0.000 C 
ATOM      2  C5  UNL     1      -0.110  -2.471  20.610  0.00  0.00    +0.000 C 
ATOM      3  F1  UNL     1      -0.877  -2.786  19.531  0.00  0.00    +0.000 F 
ATOM      4  C6  UNL     1       1.323  -2.836  20.280  0.00  0.00    +0.000 C 
ATOM      5  C7  UNL     1       1.736  -1.705  19.346  0.00  0.00    +0.000 C 
ATOM      6  C8  UNL     1       1.097  -0.436  19.949  0.00  0.00    +0.000 C 
ENDROOT
BRANCH   6   7
ATOM      7  C9  UNL     1       2.018   0.446  20.790  0.00  0.00    +0.000 C 
ATOM      8  C10 UNL     1       2.157   0.273  22.169  0.00  0.00    +0.000 C 
ATOM      9  N1  UNL     1       2.920   1.044  22.978  0.00  0.00    +0.000 NA
ATOM     10  C11 UNL     1       3.592   2.053  22.398  0.00  0.00    +0.000 C 
ATOM     11  C12 UNL     1       3.531   2.330  21.047  0.00  0.00    +0.000 C 
ATOM     12  C13 UNL     1       2.732   1.524  20.227  0.00  0.00    +0.000 C 
BRANCH  12  13
ATOM     13  C14 UNL     1       2.687   1.827  18.792  0.00  0.00    +0.000 C 
ATOM     14  C15 UNL     1       2.024   2.865  18.283  0.00  0.00    +0.000 C 
ATOM     15  F2  UNL     1       1.324   3.727  19.041  0.00  0.00    +0.000 F 
ENDBRANCH  12  13
ENDBRANCH   6   7
BRANCH   1  16
ATOM     16  C3  UNL     1      -1.435  -0.354  20.438  0.00  0.00    +0.000 C 
ATOM     17  O1  UNL     1      -2.491  -0.699  20.973  0.00  0.00    +0.000 OA
BRANCH  16  19
ATOM     18  C1  UNL     1      -1.496   2.112  19.972  0.00  0.00    +0.000 C 
ATOM     19  C2  UNL     1      -1.441   0.722  19.367  0.00  0.00    +0.000 C 
ENDBRANCH  16  19
ENDBRANCH   1  16
TORSDOF 4
ENDMDL
