MODEL 1
REMARK VINA RESULT:    -5.679      0.000      0.000
REMARK INTER + INTRA:          -8.382
REMARK INTER:                  -7.339
REMARK INTRA:                  -1.042
REMARK UNBOUND:                -1.042
REMARK  Name = ligantes_geracao2\Derivado_008.pdb
REMARK  9 active torsions:
REMARK  status: ('A' for Active; 'I' for Inactive)
REMARK    1  A    between atoms: C1_1  and  C2_2
REMARK    2  A    between atoms: C2_2  and  C3_4
REMARK    3  A    between atoms: C7_9  and  C8_10
REMARK    4  A    between atoms: C11_13  and  C12_14
REMARK    5  A    between atoms: C13_15  and  C14_16
REMARK    6  A    between atoms: C14_16  and  C15_18
REMARK    7  A    between atoms: C15_18  and  C16_19
REMARK    8  A    between atoms: C16_19  and  C17_20
REMARK    9  A    between atoms: C16_19  and  C18_21
REMARK                            x       y       z     vdW  Elec       q    Type
REMARK                         _______ _______ _______ _____ _____    ______ ____
ROOT
ATOM      1  C8  UNL     1      20.973  20.787  20.303  0.00  0.00    +0.000 C 
ATOM      2  C9  UNL     1      19.970  20.073  21.233  0.00  0.00    +0.000 C 
ATOM      3  C10 UNL     1      20.740  18.918  21.885  0.00  0.00    +0.000 C 
ATOM      4  C11 UNL     1      22.158  18.973  21.308  0.00  0.00    +0.000 C 
ATOM      5  C12 UNL     1      22.847  17.617  21.266  0.00  0.00    +0.000 C 
ATOM      6  C13 UNL     1      22.012  19.698  19.960  0.00  0.00    +0.000 C 
ENDROOT
BRANCH   1  12
ATOM      7  C3  UNL     1      21.110  22.598  18.491  0.00  0.00    +0.000 C 
ATOM      8  C4  UNL     1      20.546  23.293  17.416  0.00  0.00    +0.000 C 
ATOM      9  C5  UNL     1      19.281  22.932  17.002  0.00  0.00    +0.000 C 
ATOM     10  N1  UNL     1      18.573  21.943  17.575  0.00  0.00    +0.000 NA
ATOM     11  C6  UNL     1      19.144  21.283  18.610  0.00  0.00    +0.000 C 
ATOM     12  C7  UNL     1      20.406  21.562  19.133  0.00  0.00    +0.000 C 
BRANCH   7  14
ATOM     13  C1  UNL     1      22.660  24.037  19.942  0.00  0.00    +0.000 C 
ATOM     14  C2  UNL     1      22.489  22.971  18.891  0.00  0.00    +0.000 C 
ATOM     15  O1  UNL     1      23.448  22.430  18.349  0.00  0.00    +0.000 OA
ENDBRANCH   7  14
ENDBRANCH   1  12
BRANCH   6  16
ATOM     16  C14 UNL     1      21.557  18.805  18.806  0.00  0.00    +0.000 C 
ATOM     17  O2  UNL     1      20.542  18.110  18.875  0.00  0.00    +0.000 OA
BRANCH  16  18
ATOM     18  C15 UNL     1      22.392  18.835  17.538  0.00  0.00    +0.000 C 
BRANCH  18  19
ATOM     19  C16 UNL     1      23.887  19.006  17.828  0.00  0.00    +0.000 C 
ATOM     20  C17 UNL     1      24.565  17.659  18.084  0.00  0.00    +0.000 C 
ATOM     21  C18 UNL     1      24.570  19.718  16.659  0.00  0.00    +0.000 C 
ENDBRANCH  18  19
ENDBRANCH  16  18
ENDBRANCH   6  16
TORSDOF 5
ENDMDL
MODEL 2
REMARK VINA RESULT:    -5.674     30.045     32.353
REMARK INTER + INTRA:          -8.374
REMARK INTER:                  -7.206
REMARK INTRA:                  -1.168
REMARK UNBOUND:                -1.042
REMARK  Name = ligantes_geracao2\Derivado_008.pdb
REMARK  9 active torsions:
REMARK  status: ('A' for Active; 'I' for Inactive)
REMARK    1  A    between atoms: C1_1  and  C2_2
REMARK    2  A    between atoms: C2_2  and  C3_4
REMARK    3  A    between atoms: C7_9  and  C8_10
REMARK    4  A    between atoms: C11_13  and  C12_14
REMARK    5  A    between atoms: C13_15  and  C14_16
REMARK    6  A    between atoms: C14_16  and  C15_18
REMARK    7  A    between atoms: C15_18  and  C16_19
REMARK    8  A    between atoms: C16_19  and  C17_20
REMARK    9  A    between atoms: C16_19  and  C18_21
REMARK                            x       y       z     vdW  Elec       q    Type
REMARK                         _______ _______ _______ _____ _____    ______ ____
ROOT
ATOM      1  C8  UNL     1      16.439  -4.770   2.069  0.00  0.00    +0.000 C 
ATOM      2  C9  UNL     1      16.485  -3.332   2.627  0.00  0.00    +0.000 C 
ATOM      3  C10 UNL     1      15.208  -2.643   2.132  0.00  0.00    +0.000 C 
ATOM      4  C11 UNL     1      14.463  -3.680   1.287  0.00  0.00    +0.000 C 
ATOM      5  C12 UNL     1      13.597  -3.065   0.199  0.00  0.00    +0.000 C 
ATOM      6  C13 UNL     1      15.548  -4.661   0.814  0.00  0.00    +0.000 C 
ENDROOT
BRANCH   1  12
ATOM      7  C3  UNL     1      17.857  -6.890   1.790  0.00  0.00    +0.000 C 
ATOM      8  C4  UNL     1      19.098  -7.515   1.633  0.00  0.00    +0.000 C 
ATOM      9  C5  UNL     1      20.223  -6.719   1.578  0.00  0.00    +0.000 C 
ATOM     10  N1  UNL     1      20.181  -5.378   1.659  0.00  0.00    +0.000 NA
ATOM     11  C6  UNL     1      18.966  -4.797   1.807  0.00  0.00    +0.000 C 
ATOM     12  C7  UNL     1      17.759  -5.489   1.892  0.00  0.00    +0.000 C 
BRANCH   7  14
ATOM     13  C1  UNL     1      16.133  -8.233   3.132  0.00  0.00    +0.000 C 
ATOM     14  C2  UNL     1      16.656  -7.761   1.800  0.00  0.00    +0.000 C 
ATOM     15  O1  UNL     1      16.136  -8.095   0.740  0.00  0.00    +0.000 OA
ENDBRANCH   7  14
ENDBRANCH   1  12
BRANCH   6  16
ATOM     16  C14 UNL     1      16.330  -4.196  -0.415  0.00  0.00    +0.000 C 
ATOM     17  O2  UNL     1      16.832  -3.073  -0.486  0.00  0.00    +0.000 OA
BRANCH  16  18
ATOM     18  C15 UNL     1      16.503  -5.197  -1.544  0.00  0.00    +0.000 C 
BRANCH  18  19
ATOM     19  C16 UNL     1      17.953  -5.671  -1.685  0.00  0.00    +0.000 C 
ATOM     20  C17 UNL     1      18.023  -7.139  -2.107  0.00  0.00    +0.000 C 
ATOM     21  C18 UNL     1      18.692  -4.802  -2.705  0.00  0.00    +0.000 C 
ENDBRANCH  18  19
ENDBRANCH  16  18
ENDBRANCH   6  16
TORSDOF 5
ENDMDL
MODEL 3
REMARK VINA RESULT:    -5.629     28.699     30.305
REMARK INTER + INTRA:          -8.316
REMARK INTER:                  -7.324
REMARK INTRA:                  -0.992
REMARK UNBOUND:                -1.042
REMARK  Name = ligantes_geracao2\Derivado_008.pdb
REMARK  9 active torsions:
REMARK  status: ('A' for Active; 'I' for Inactive)
REMARK    1  A    between atoms: C1_1  and  C2_2
REMARK    2  A    between atoms: C2_2  and  C3_4
REMARK    3  A    between atoms: C7_9  and  C8_10
REMARK    4  A    between atoms: C11_13  and  C12_14
REMARK    5  A    between atoms: C13_15  and  C14_16
REMARK    6  A    between atoms: C14_16  and  C15_18
REMARK    7  A    between atoms: C15_18  and  C16_19
REMARK    8  A    between atoms: C16_19  and  C17_20
REMARK    9  A    between atoms: C16_19  and  C18_21
REMARK                            x       y       z     vdW  Elec       q    Type
REMARK                         _______ _______ _______ _____ _____    ______ ____
ROOT
ATOM      1  C8  UNL     1       1.035  -0.474  19.786  0.00  0.00    +0.000 C 
ATOM      2  C9  UNL     1       0.399   0.145  21.048  0.00  0.00    +0.000 C 
ATOM      3  C10 UNL     1       1.158  -0.447  22.241  0.00  0.00    +0.000 C 
ATOM      4  C11 UNL     1       2.198  -1.405  21.652  0.00  0.00    +0.000 C 
ATOM      5  C12 UNL     1       2.565  -2.549  22.586  0.00  0.00    +0.000 C 
ATOM      6  C13 UNL     1       1.636  -1.807  20.279  0.00  0.00    +0.000 C 
ENDROOT
BRANCH   1  12
ATOM      7  C3  UNL     1       0.672  -0.251  17.255  0.00  0.00    +0.000 C 
ATOM      8  C4  UNL     1      -0.155  -0.326  16.131  0.00  0.00    +0.000 C 
ATOM      9  C5  UNL     1      -1.470  -0.700  16.317  0.00  0.00    +0.000 C 
ATOM     10  N1  UNL     1      -1.986  -1.003  17.520  0.00  0.00    +0.000 NA
ATOM     11  C6  UNL     1      -1.162  -0.927  18.592  0.00  0.00    +0.000 C 
ATOM     12  C7  UNL     1       0.178  -0.547  18.540  0.00  0.00    +0.000 C 
BRANCH   7  14
ATOM     13  C1  UNL     1       3.028  -0.966  16.535  0.00  0.00    +0.000 C 
ATOM     14  C2  UNL     1       2.094   0.108  17.029  0.00  0.00    +0.000 C 
ATOM     15  O1  UNL     1       2.481   1.248  17.269  0.00  0.00    +0.000 OA
ENDBRANCH   7  14
ENDBRANCH   1  12
BRANCH   6  16
ATOM     16  C14 UNL     1       0.600  -2.930  20.322  0.00  0.00    +0.000 C 
ATOM     17  O2  UNL     1      -0.354  -2.913  21.103  0.00  0.00    +0.000 OA
BRANCH  16  18
ATOM     18  C15 UNL     1       0.769  -4.066  19.328  0.00  0.00    +0.000 C 
BRANCH  18  19
ATOM     19  C16 UNL     1       1.806  -3.743  18.246  0.00  0.00    +0.000 C 
ATOM     20  C17 UNL     1       3.108  -4.513  18.473  0.00  0.00    +0.000 C 
ATOM     21  C18 UNL     1       1.240  -4.075  16.864  0.00  0.00    +0.000 C 
ENDBRANCH  18  19
ENDBRANCH  16  18
ENDBRANCH   6  16
TORSDOF 5
ENDMDL
MODEL 4
REMARK VINA RESULT:    -5.601     30.501     32.590
REMARK INTER + INTRA:          -8.280
REMARK INTER:                  -7.322
REMARK INTRA:                  -0.959
REMARK UNBOUND:                -1.042
REMARK  Name = ligantes_geracao2\Derivado_008.pdb
REMARK  9 active torsions:
REMARK  status: ('A' for Active; 'I' for Inactive)
REMARK    1  A    between atoms: C1_1  and  C2_2
REMARK    2  A    between atoms: C2_2  and  C3_4
REMARK    3  A    between atoms: C7_9  and  C8_10
REMARK    4  A    between atoms: C11_13  and  C12_14
REMARK    5  A    between atoms: C13_15  and  C14_16
REMARK    6  A    between atoms: C14_16  and  C15_18
REMARK    7  A    between atoms: C15_18  and  C16_19
REMARK    8  A    between atoms: C16_19  and  C17_20
REMARK    9  A    between atoms: C16_19  and  C18_21
REMARK                            x       y       z     vdW  Elec       q    Type
REMARK                         _______ _______ _______ _____ _____    ______ ____
ROOT
ATOM      1  C8  UNL     1      15.710  -6.928   1.646  0.00  0.00    +0.000 C 
ATOM      2  C9  UNL     1      14.840  -8.164   1.332  0.00  0.00    +0.000 C 
ATOM      3  C10 UNL     1      15.249  -9.240   2.345  0.00  0.00    +0.000 C 
ATOM      4  C11 UNL     1      16.353  -8.618   3.205  0.00  0.00    +0.000 C 
ATOM      5  C12 UNL     1      17.329  -9.640   3.768  0.00  0.00    +0.000 C 
ATOM      6  C13 UNL     1      16.964  -7.511   2.331  0.00  0.00    +0.000 C 
ENDROOT
BRANCH   1  12
ATOM      7  C3  UNL     1      16.156  -4.571   0.733  0.00  0.00    +0.000 C 
ATOM      8  C4  UNL     1      16.376  -3.700  -0.338  0.00  0.00    +0.000 C 
ATOM      9  C5  UNL     1      16.397  -4.229  -1.611  0.00  0.00    +0.000 C 
ATOM     10  N1  UNL     1      16.225  -5.538  -1.868  0.00  0.00    +0.000 NA
ATOM     11  C6  UNL     1      16.017  -6.361  -0.812  0.00  0.00    +0.000 C 
ATOM     12  C7  UNL     1      15.958  -5.949   0.518  0.00  0.00    +0.000 C 
BRANCH   7  14
ATOM     13  C1  UNL     1      14.872  -3.795   2.813  0.00  0.00    +0.000 C 
ATOM     14  C2  UNL     1      16.183  -3.990   2.098  0.00  0.00    +0.000 C 
ATOM     15  O1  UNL     1      17.254  -3.660   2.599  0.00  0.00    +0.000 OA
ENDBRANCH   7  14
ENDBRANCH   1  12
BRANCH   6  16
ATOM     16  C14 UNL     1      18.002  -8.001   1.321  0.00  0.00    +0.000 C 
ATOM     17  O2  UNL     1      17.849  -9.041   0.676  0.00  0.00    +0.000 OA
BRANCH  16  18
ATOM     18  C15 UNL     1      19.226  -7.129   1.109  0.00  0.00    +0.000 C 
BRANCH  18  19
ATOM     19  C16 UNL     1      19.640  -6.386   2.384  0.00  0.00    +0.000 C 
ATOM     20  C17 UNL     1      20.629  -7.206   3.213  0.00  0.00    +0.000 C 
ATOM     21  C18 UNL     1      20.259  -5.034   2.025  0.00  0.00    +0.000 C 
ENDBRANCH  18  19
ENDBRANCH  16  18
ENDBRANCH   6  16
TORSDOF 5
ENDMDL
MODEL 5
REMARK VINA RESULT:    -5.580      2.090      4.430
REMARK INTER + INTRA:          -8.254
REMARK INTER:                  -7.567
REMARK INTRA:                  -0.686
REMARK UNBOUND:                -1.042
REMARK  Name = ligantes_geracao2\Derivado_008.pdb
REMARK  9 active torsions:
REMARK  status: ('A' for Active; 'I' for Inactive)
REMARK    1  A    between atoms: C1_1  and  C2_2
REMARK    2  A    between atoms: C2_2  and  C3_4
REMARK    3  A    between atoms: C7_9  and  C8_10
REMARK    4  A    between atoms: C11_13  and  C12_14
REMARK    5  A    between atoms: C13_15  and  C14_16
REMARK    6  A    between atoms: C14_16  and  C15_18
REMARK    7  A    between atoms: C15_18  and  C16_19
REMARK    8  A    between atoms: C16_19  and  C17_20
REMARK    9  A    between atoms: C16_19  and  C18_21
REMARK                            x       y       z     vdW  Elec       q    Type
REMARK                         _______ _______ _______ _____ _____    ______ ____
ROOT
ATOM      1  C8  UNL     1      21.968  18.399  19.355  0.00  0.00    +0.000 C 
ATOM      2  C9  UNL     1      22.840  18.010  20.567  0.00  0.00    +0.000 C 
ATOM      3  C10 UNL     1      21.870  17.537  21.656  0.00  0.00    +0.000 C 
ATOM      4  C11 UNL     1      20.464  17.680  21.065  0.00  0.00    +0.000 C 
ATOM      5  C12 UNL     1      19.389  17.924  22.113  0.00  0.00    +0.000 C 
ATOM      6  C13 UNL     1      20.598  18.752  19.972  0.00  0.00    +0.000 C 
ENDROOT
BRANCH   1  12
ATOM      7  C3  UNL     1      22.039  19.576  17.076  0.00  0.00    +0.000 C 
ATOM      8  C4  UNL     1      22.602  20.513  16.204  0.00  0.00    +0.000 C 
ATOM      9  C5  UNL     1      23.663  21.266  16.660  0.00  0.00    +0.000 C 
ATOM     10  N1  UNL     1      24.173  21.149  17.899  0.00  0.00    +0.000 NA
ATOM     11  C6  UNL     1      23.606  20.237  18.724  0.00  0.00    +0.000 C 
ATOM     12  C7  UNL     1      22.542  19.405  18.380  0.00  0.00    +0.000 C 
BRANCH   7  14
ATOM     13  C1  UNL     1      19.825  19.542  15.781  0.00  0.00    +0.000 C 
ATOM     14  C2  UNL     1      20.869  18.808  16.582  0.00  0.00    +0.000 C 
ATOM     15  O1  UNL     1      20.763  17.616  16.855  0.00  0.00    +0.000 OA
ENDBRANCH   7  14
ENDBRANCH   1  12
BRANCH   6  16
ATOM     16  C14 UNL     1      20.547  20.191  20.486  0.00  0.00    +0.000 C 
ATOM     17  O2  UNL     1      21.428  20.661  21.208  0.00  0.00    +0.000 OA
BRANCH  16  18
ATOM     18  C15 UNL     1      19.374  21.045  20.037  0.00  0.00    +0.000 C 
BRANCH  18  19
ATOM     19  C16 UNL     1      19.596  21.657  18.649  0.00  0.00    +0.000 C 
ATOM     20  C17 UNL     1      18.283  22.141  18.035  0.00  0.00    +0.000 C 
ATOM     21  C18 UNL     1      20.586  22.820  18.743  0.00  0.00    +0.000 C 
ENDBRANCH  18  19
ENDBRANCH  16  18
ENDBRANCH   6  16
TORSDOF 5
ENDMDL
MODEL 6
REMARK VINA RESULT:    -5.513      2.600      5.108
REMARK INTER + INTRA:          -8.167
REMARK INTER:                  -7.465
REMARK INTRA:                  -0.703
REMARK UNBOUND:                -1.042
REMARK  Name = ligantes_geracao2\Derivado_008.pdb
REMARK  9 active torsions:
REMARK  status: ('A' for Active; 'I' for Inactive)
REMARK    1  A    between atoms: C1_1  and  C2_2
REMARK    2  A    between atoms: C2_2  and  C3_4
REMARK    3  A    between atoms: C7_9  and  C8_10
REMARK    4  A    between atoms: C11_13  and  C12_14
REMARK    5  A    between atoms: C13_15  and  C14_16
REMARK    6  A    between atoms: C14_16  and  C15_18
REMARK    7  A    between atoms: C15_18  and  C16_19
REMARK    8  A    between atoms: C16_19  and  C17_20
REMARK    9  A    between atoms: C16_19  and  C18_21
REMARK                            x       y       z     vdW  Elec       q    Type
REMARK                         _______ _______ _______ _____ _____    ______ ____
ROOT
ATOM      1  C8  UNL     1      21.522  20.884  19.599  0.00  0.00    +0.000 C 
ATOM      2  C9  UNL     1      21.762  22.381  19.313  0.00  0.00    +0.000 C 
ATOM      3  C10 UNL     1      20.404  22.957  18.894  0.00  0.00    +0.000 C 
ATOM      4  C11 UNL     1      19.417  21.788  18.926  0.00  0.00    +0.000 C 
ATOM      5  C12 UNL     1      18.260  21.945  17.950  0.00  0.00    +0.000 C 
ATOM      6  C13 UNL     1      20.283  20.530  18.750  0.00  0.00    +0.000 C 
ENDROOT
BRANCH   1  12
ATOM      7  C3  UNL     1      22.881  18.819  20.287  0.00  0.00    +0.000 C 
ATOM      8  C4  UNL     1      23.996  17.988  20.139  0.00  0.00    +0.000 C 
ATOM      9  C5  UNL     1      24.920  18.310  19.168  0.00  0.00    +0.000 C 
ATOM     10  N1  UNL     1      24.796  19.374  18.357  0.00  0.00    +0.000 NA
ATOM     11  C6  UNL     1      23.705  20.160  18.518  0.00  0.00    +0.000 C 
ATOM     12  C7  UNL     1      22.709  19.953  19.471  0.00  0.00    +0.000 C 
BRANCH   7  14
ATOM     13  C1  UNL     1      20.726  17.556  20.871  0.00  0.00    +0.000 C 
ATOM     14  C2  UNL     1      21.874  18.429  21.306  0.00  0.00    +0.000 C 
ATOM     15  O1  UNL     1      21.981  18.841  22.457  0.00  0.00    +0.000 OA
ENDBRANCH   7  14
ENDBRANCH   1  12
BRANCH   6  16
ATOM     16  C14 UNL     1      20.645  20.208  17.300  0.00  0.00    +0.000 C 
ATOM     17  O2  UNL     1      20.937  21.087  16.486  0.00  0.00    +0.000 OA
BRANCH  16  18
ATOM     18  C15 UNL     1      20.672  18.742  16.903  0.00  0.00    +0.000 C 
BRANCH  18  19
ATOM     19  C16 UNL     1      19.302  18.241  16.432  0.00  0.00    +0.000 C 
ATOM     20  C17 UNL     1      19.131  18.416  14.923  0.00  0.00    +0.000 C 
ATOM     21  C18 UNL     1      19.126  16.769  16.807  0.00  0.00    +0.000 C 
ENDBRANCH  18  19
ENDBRANCH  16  18
ENDBRANCH   6  16
TORSDOF 5
ENDMDL
MODEL 7
REMARK VINA RESULT:    -5.458      2.462      5.152
REMARK INTER + INTRA:          -8.095
REMARK INTER:                  -6.920
REMARK INTRA:                  -1.175
REMARK UNBOUND:                -1.042
REMARK  Name = ligantes_geracao2\Derivado_008.pdb
REMARK  9 active torsions:
REMARK  status: ('A' for Active; 'I' for Inactive)
REMARK    1  A    between atoms: C1_1  and  C2_2
REMARK    2  A    between atoms: C2_2  and  C3_4
REMARK    3  A    between atoms: C7_9  and  C8_10
REMARK    4  A    between atoms: C11_13  and  C12_14
REMARK    5  A    between atoms: C13_15  and  C14_16
REMARK    6  A    between atoms: C14_16  and  C15_18
REMARK    7  A    between atoms: C15_18  and  C16_19
REMARK    8  A    between atoms: C16_19  and  C17_20
REMARK    9  A    between atoms: C16_19  and  C18_21
REMARK                            x       y       z     vdW  Elec       q    Type
REMARK                         _______ _______ _______ _____ _____    ______ ____
ROOT
ATOM      1  C8  UNL     1      21.056  18.257  17.230  0.00  0.00    +0.000 C 
ATOM      2  C9  UNL     1      19.678  17.601  17.000  0.00  0.00    +0.000 C 
ATOM      3  C10 UNL     1      19.167  18.142  15.660  0.00  0.00    +0.000 C 
ATOM      4  C11 UNL     1      20.242  19.109  15.152  0.00  0.00    +0.000 C 
ATOM      5  C12 UNL     1      19.691  20.214  14.265  0.00  0.00    +0.000 C 
ATOM      6  C13 UNL     1      20.994  19.565  16.413  0.00  0.00    +0.000 C 
ENDROOT
BRANCH   1  12
ATOM      7  C3  UNL     1      22.900  18.423  19.006  0.00  0.00    +0.000 C 
ATOM      8  C4  UNL     1      23.301  18.535  20.341  0.00  0.00    +0.000 C 
ATOM      9  C5  UNL     1      22.321  18.609  21.308  0.00  0.00    +0.000 C 
ATOM     10  N1  UNL     1      21.006  18.587  21.029  0.00  0.00    +0.000 NA
ATOM     11  C6  UNL     1      20.645  18.482  19.727  0.00  0.00    +0.000 C 
ATOM     12  C7  UNL     1      21.536  18.384  18.660  0.00  0.00    +0.000 C 
BRANCH   7  14
ATOM     13  C1  UNL     1      24.395  19.696  17.357  0.00  0.00    +0.000 C 
ATOM     14  C2  UNL     1      23.969  18.391  17.977  0.00  0.00    +0.000 C 
ATOM     15  O1  UNL     1      24.458  17.317  17.639  0.00  0.00    +0.000 OA
ENDBRANCH   7  14
ENDBRANCH   1  12
BRANCH   6  16
ATOM     16  C14 UNL     1      20.313  20.698  17.182  0.00  0.00    +0.000 C 
ATOM     17  O2  UNL     1      19.127  20.645  17.513  0.00  0.00    +0.000 OA
BRANCH  16  18
ATOM     18  C15 UNL     1      21.173  21.890  17.562  0.00  0.00    +0.000 C 
BRANCH  18  19
ATOM     19  C16 UNL     1      20.971  22.312  19.022  0.00  0.00    +0.000 C 
ATOM     20  C17 UNL     1      22.235  22.078  19.851  0.00  0.00    +0.000 C 
ATOM     21  C18 UNL     1      20.571  23.787  19.091  0.00  0.00    +0.000 C 
ENDBRANCH  18  19
ENDBRANCH  16  18
ENDBRANCH   6  16
TORSDOF 5
ENDMDL
MODEL 8
REMARK VINA RESULT:    -5.443     27.889     29.745
REMARK INTER + INTRA:          -8.077
REMARK INTER:                  -7.035
REMARK INTRA:                  -1.042
REMARK UNBOUND:                -1.042
REMARK  Name = ligantes_geracao2\Derivado_008.pdb
REMARK  9 active torsions:
REMARK  status: ('A' for Active; 'I' for Inactive)
REMARK    1  A    between atoms: C1_1  and  C2_2
REMARK    2  A    between atoms: C2_2  and  C3_4
REMARK    3  A    between atoms: C7_9  and  C8_10
REMARK    4  A    between atoms: C11_13  and  C12_14
REMARK    5  A    between atoms: C13_15  and  C14_16
REMARK    6  A    between atoms: C14_16  and  C15_18
REMARK    7  A    between atoms: C15_18  and  C16_19
REMARK    8  A    between atoms: C16_19  and  C17_20
REMARK    9  A    between atoms: C16_19  and  C18_21
REMARK                            x       y       z     vdW  Elec       q    Type
REMARK                         _______ _______ _______ _____ _____    ______ ____
ROOT
ATOM      1  C8  UNL     1       1.705   0.327  18.082  0.00  0.00    +0.000 C 
ATOM      2  C9  UNL     1       1.457   1.765  17.581  0.00  0.00    +0.000 C 
ATOM      3  C10 UNL     1       2.281   2.682  18.493  0.00  0.00    +0.000 C 
ATOM      4  C11 UNL     1       2.969   1.766  19.509  0.00  0.00    +0.000 C 
ATOM      5  C12 UNL     1       3.251   2.444  20.841  0.00  0.00    +0.000 C 
ATOM      6  C13 UNL     1       2.092   0.504  19.566  0.00  0.00    +0.000 C 
ENDROOT
BRANCH   1  12
ATOM      7  C3  UNL     1       0.935  -2.057  17.525  0.00  0.00    +0.000 C 
ATOM      8  C4  UNL     1      -0.081  -2.977  17.252  0.00  0.00    +0.000 C 
ATOM      9  C5  UNL     1      -1.383  -2.524  17.250  0.00  0.00    +0.000 C 
ATOM     10  N1  UNL     1      -1.720  -1.248  17.506  0.00  0.00    +0.000 NA
ATOM     11  C6  UNL     1      -0.716  -0.377  17.772  0.00  0.00    +0.000 C 
ATOM     12  C7  UNL     1       0.638  -0.706  17.788  0.00  0.00    +0.000 C 
BRANCH   7  14
ATOM     13  C1  UNL     1       3.239  -2.250  16.414  0.00  0.00    +0.000 C 
ATOM     14  C2  UNL     1       2.326  -2.574  17.567  0.00  0.00    +0.000 C 
ATOM     15  O1  UNL     1       2.690  -3.266  18.513  0.00  0.00    +0.000 OA
ENDBRANCH   7  14
ENDBRANCH   1  12
BRANCH   6  16
ATOM     16  C14 UNL     1       0.868   0.623  20.474  0.00  0.00    +0.000 C 
ATOM     17  O2  UNL     1      -0.002   1.477  20.294  0.00  0.00    +0.000 OA
BRANCH  16  18
ATOM     18  C15 UNL     1       0.742  -0.389  21.600  0.00  0.00    +0.000 C 
BRANCH  18  19
ATOM     19  C16 UNL     1       1.351  -1.747  21.234  0.00  0.00    +0.000 C 
ATOM     20  C17 UNL     1       2.384  -2.194  22.268  0.00  0.00    +0.000 C 
ATOM     21  C18 UNL     1       0.247  -2.800  21.114  0.00  0.00    +0.000 C 
ENDBRANCH  18  19
ENDBRANCH  16  18
ENDBRANCH   6  16
TORSDOF 5
ENDMDL
MODEL 9
REMARK VINA RESULT:    -5.424     27.887     29.867
REMARK INTER + INTRA:          -8.052
REMARK INTER:                  -6.908
REMARK INTRA:                  -1.144
REMARK UNBOUND:                -1.042
REMARK  Name = ligantes_geracao2\Derivado_008.pdb
REMARK  9 active torsions:
REMARK  status: ('A' for Active; 'I' for Inactive)
REMARK    1  A    between atoms: C1_1  and  C2_2
REMARK    2  A    between atoms: C2_2  and  C3_4
REMARK    3  A    between atoms: C7_9  and  C8_10
REMARK    4  A    between atoms: C11_13  and  C12_14
REMARK    5  A    between atoms: C13_15  and  C14_16
REMARK    6  A    between atoms: C14_16  and  C15_18
REMARK    7  A    between atoms: C15_18  and  C16_19
REMARK    8  A    between atoms: C16_19  and  C17_20
REMARK    9  A    between atoms: C16_19  and  C18_21
REMARK                            x       y       z     vdW  Elec       q    Type
REMARK                         _______ _______ _______ _____ _____    ______ ____
ROOT
ATOM      1  C8  UNL     1       1.515   1.140  19.223  0.00  0.00    +0.000 C 
ATOM      2  C9  UNL     1       1.723   1.655  17.783  0.00  0.00    +0.000 C 
ATOM      3  C10 UNL     1       0.988   2.998  17.702  0.00  0.00    +0.000 C 
ATOM      4  C11 UNL     1       0.357   3.223  19.079  0.00  0.00    +0.000 C 
ATOM      5  C12 UNL     1      -0.906   4.070  19.035  0.00  0.00    +0.000 C 
ATOM      6  C13 UNL     1       0.207   1.817  19.682  0.00  0.00    +0.000 C 
ENDROOT
BRANCH   1  12
ATOM      7  C3  UNL     1       1.866  -0.923  20.708  0.00  0.00    +0.000 C 
ATOM      8  C4  UNL     1       1.950  -2.309  20.870  0.00  0.00    +0.000 C 
ATOM      9  C5  UNL     1       1.770  -3.104  19.757  0.00  0.00    +0.000 C 
ATOM     10  N1  UNL     1       1.511  -2.611  18.534  0.00  0.00    +0.000 NA
ATOM     11  C6  UNL     1       1.431  -1.265  18.406  0.00  0.00    +0.000 C 
ATOM     12  C7  UNL     1       1.608  -0.355  19.446  0.00  0.00    +0.000 C 
BRANCH   7  14
ATOM     13  C1  UNL     1       3.334   0.608  22.150  0.00  0.00    +0.000 C 
ATOM     14  C2  UNL     1       2.017  -0.087  21.926  0.00  0.00    +0.000 C 
ATOM     15  O1  UNL     1       1.090  -0.003  22.725  0.00  0.00    +0.000 OA
ENDBRANCH   7  14
ENDBRANCH   1  12
BRANCH   6  16
ATOM     16  C14 UNL     1      -1.035   1.058  19.218  0.00  0.00    +0.000 C 
ATOM     17  O2  UNL     1      -1.358   0.992  18.030  0.00  0.00    +0.000 OA
BRANCH  16  18
ATOM     18  C15 UNL     1      -1.848   0.342  20.283  0.00  0.00    +0.000 C 
BRANCH  18  19
ATOM     19  C16 UNL     1      -2.079  -1.135  19.945  0.00  0.00    +0.000 C 
ATOM     20  C17 UNL     1      -1.707  -2.041  21.120  0.00  0.00    +0.000 C 
ATOM     21  C18 UNL     1      -3.541  -1.361  19.558  0.00  0.00    +0.000 C 
ENDBRANCH  18  19
ENDBRANCH  16  18
ENDBRANCH   6  16
TORSDOF 5
ENDMDL
