MODEL 1
REMARK VINA RESULT:    -5.800      0.000      0.000
REMARK INTER + INTRA:          -9.195
REMARK INTER:                  -7.664
REMARK INTRA:                  -1.531
REMARK UNBOUND:                -1.531
REMARK  Name = ligantes_geracao2\Derivado_006.pdb
REMARK  10 active torsions:
REMARK  status: ('A' for Active; 'I' for Inactive)
REMARK    1  A    between atoms: C1_1  and  C2_2
REMARK    2  A    between atoms: C5_6  and  C6_7
REMARK    3  A    between atoms: C9_10  and  C10_11
REMARK    4  A    between atoms: C11_12  and  C12_13
REMARK    5  A    between atoms: C12_13  and  C13_15
REMARK    6  A    between atoms: C13_15  and  C14_16
REMARK    7  A    between atoms: C14_16  and  C15_17
REMARK    8  A    between atoms: C14_16  and  C16_18
REMARK    9  A    between atoms: C17_19  and  C18_20
REMARK   10  A    between atoms: N2_21  and  O2_22
REMARK                            x       y       z     vdW  Elec       q    Type
REMARK                         _______ _______ _______ _____ _____    ______ ____
ROOT
ATOM      1  C6  UNL     1      17.923  -5.861   1.958  0.00  0.00    +0.000 C 
ATOM      2  C7  UNL     1      18.841  -4.645   1.753  0.00  0.00    +0.000 C 
ATOM      3  C8  UNL     1      20.190  -5.173   2.221  0.00  0.00    +0.000 C 
ATOM      4  C9  UNL     1      20.251  -6.611   1.682  0.00  0.00    +0.000 C 
ATOM      5  C10 UNL     1      20.977  -7.545   2.643  0.00  0.00    +0.000 C 
ATOM      6  C11 UNL     1      18.781  -7.038   1.441  0.00  0.00    +0.000 C 
ENDROOT
BRANCH   1  12
ATOM      7  C1  UNL     1      12.946  -7.195   1.900  0.00  0.00    +0.000 C 
ATOM      8  C2  UNL     1      14.136  -6.414   1.427  0.00  0.00    +0.000 C 
ATOM      9  C3  UNL     1      13.961  -5.497   0.400  0.00  0.00    +0.000 C 
ATOM     10  N1  UNL     1      14.949  -4.754  -0.131  0.00  0.00    +0.000 NA
ATOM     11  C4  UNL     1      16.184  -4.912   0.387  0.00  0.00    +0.000 C 
ATOM     12  C5  UNL     1      16.505  -5.776   1.433  0.00  0.00    +0.000 C 
ATOM     13  C17 UNL     1      15.436  -6.542   1.958  0.00  0.00    +0.000 C 
BRANCH  13  14
ATOM     14  C18 UNL     1      15.707  -7.493   3.065  0.00  0.00    +0.000 C 
ATOM     15  N2  UNL     1      15.956  -8.751   2.879  0.00  0.00    +0.000 NA
BRANCH  15  16
ATOM     16  O2  UNL     1      16.153  -9.363   4.123  0.00  0.00    +0.000 OA
ATOM     17  H   UNL     1      15.590 -10.061   4.396  0.00  0.00    +0.000 HD
ENDBRANCH  15  16
ENDBRANCH  13  14
ENDBRANCH   1  12
BRANCH   6  18
ATOM     18  C12 UNL     1      18.552  -7.328  -0.044  0.00  0.00    +0.000 C 
ATOM     19  O1  UNL     1      18.974  -6.571  -0.917  0.00  0.00    +0.000 OA
BRANCH  18  20
ATOM     20  C13 UNL     1      17.789  -8.608  -0.365  0.00  0.00    +0.000 C 
BRANCH  20  21
ATOM     21  C14 UNL     1      16.568  -8.400  -1.272  0.00  0.00    +0.000 C 
ATOM     22  C15 UNL     1      16.882  -8.887  -2.688  0.00  0.00    +0.000 C 
ATOM     23  C16 UNL     1      15.337  -9.135  -0.737  0.00  0.00    +0.000 C 
ENDBRANCH  20  21
ENDBRANCH  18  20
ENDBRANCH   6  18
TORSDOF 6
ENDMDL
MODEL 2
REMARK VINA RESULT:    -5.705     23.299     25.952
REMARK INTER + INTRA:          -9.069
REMARK INTER:                  -8.145
REMARK INTRA:                  -0.924
REMARK UNBOUND:                -1.531
REMARK  Name = ligantes_geracao2\Derivado_006.pdb
REMARK  10 active torsions:
REMARK  status: ('A' for Active; 'I' for Inactive)
REMARK    1  A    between atoms: C1_1  and  C2_2
REMARK    2  A    between atoms: C5_6  and  C6_7
REMARK    3  A    between atoms: C9_10  and  C10_11
REMARK    4  A    between atoms: C11_12  and  C12_13
REMARK    5  A    between atoms: C12_13  and  C13_15
REMARK    6  A    between atoms: C13_15  and  C14_16
REMARK    7  A    between atoms: C14_16  and  C15_17
REMARK    8  A    between atoms: C14_16  and  C16_18
REMARK    9  A    between atoms: C17_19  and  C18_20
REMARK   10  A    between atoms: N2_21  and  O2_22
REMARK                            x       y       z     vdW  Elec       q    Type
REMARK                         _______ _______ _______ _____ _____    ______ ____
ROOT
ATOM      1  C6  UNL     1       0.039  -0.258  20.481  0.00  0.00    +0.000 C 
ATOM      2  C7  UNL     1       1.256   0.669  20.327  0.00  0.00    +0.000 C 
ATOM      3  C8  UNL     1       2.260   0.049  21.290  0.00  0.00    +0.000 C 
ATOM      4  C9  UNL     1       2.091  -1.466  21.102  0.00  0.00    +0.000 C 
ATOM      5  C10 UNL     1       2.285  -2.223  22.411  0.00  0.00    +0.000 C 
ATOM      6  C11 UNL     1       0.674  -1.667  20.509  0.00  0.00    +0.000 C 
ENDROOT
BRANCH   1  12
ATOM      7  C1  UNL     1      -4.880  -0.823  19.054  0.00  0.00    +0.000 C 
ATOM      8  C2  UNL     1      -3.475  -0.328  18.877  0.00  0.00    +0.000 C 
ATOM      9  C3  UNL     1      -3.169   0.401  17.736  0.00  0.00    +0.000 C 
ATOM     10  N1  UNL     1      -1.945   0.878  17.447  0.00  0.00    +0.000 NA
ATOM     11  C4  UNL     1      -0.962   0.635  18.338  0.00  0.00    +0.000 C 
ATOM     12  C5  UNL     1      -1.127  -0.060  19.535  0.00  0.00    +0.000 C 
ATOM     13  C17 UNL     1      -2.430  -0.549  19.797  0.00  0.00    +0.000 C 
BRANCH  13  14
ATOM     14  C18 UNL     1      -2.676  -1.311  21.047  0.00  0.00    +0.000 C 
ATOM     15  N2  UNL     1      -2.620  -2.603  21.117  0.00  0.00    +0.000 NA
BRANCH  15  16
ATOM     16  O2  UNL     1      -2.912  -3.000  22.427  0.00  0.00    +0.000 OA
ATOM     17  H   UNL     1      -2.822  -3.900  22.675  0.00  0.00    +0.000 HD
ENDBRANCH  15  16
ENDBRANCH  13  14
ENDBRANCH   1  12
BRANCH   6  18
ATOM     18  C12 UNL     1       0.768  -2.300  19.118  0.00  0.00    +0.000 C 
ATOM     19  O1  UNL     1      -0.105  -3.059  18.700  0.00  0.00    +0.000 OA
BRANCH  18  20
ATOM     20  C13 UNL     1       1.991  -1.920  18.293  0.00  0.00    +0.000 C 
BRANCH  20  21
ATOM     21  C14 UNL     1       2.519  -3.050  17.396  0.00  0.00    +0.000 C 
ATOM     22  C15 UNL     1       3.497  -2.483  16.366  0.00  0.00    +0.000 C 
ATOM     23  C16 UNL     1       3.211  -4.142  18.215  0.00  0.00    +0.000 C 
ENDBRANCH  20  21
ENDBRANCH  18  20
ENDBRANCH   6  18
TORSDOF 6
ENDMDL
MODEL 3
REMARK VINA RESULT:    -5.702      2.220      3.118
REMARK INTER + INTRA:          -9.066
REMARK INTER:                  -7.791
REMARK INTRA:                  -1.275
REMARK UNBOUND:                -1.531
REMARK  Name = ligantes_geracao2\Derivado_006.pdb
REMARK  10 active torsions:
REMARK  status: ('A' for Active; 'I' for Inactive)
REMARK    1  A    between atoms: C1_1  and  C2_2
REMARK    2  A    between atoms: C5_6  and  C6_7
REMARK    3  A    between atoms: C9_10  and  C10_11
REMARK    4  A    between atoms: C11_12  and  C12_13
REMARK    5  A    between atoms: C12_13  and  C13_15
REMARK    6  A    between atoms: C13_15  and  C14_16
REMARK    7  A    between atoms: C14_16  and  C15_17
REMARK    8  A    between atoms: C14_16  and  C16_18
REMARK    9  A    between atoms: C17_19  and  C18_20
REMARK   10  A    between atoms: N2_21  and  O2_22
REMARK                            x       y       z     vdW  Elec       q    Type
REMARK                         _______ _______ _______ _____ _____    ______ ____
ROOT
ATOM      1  C6  UNL     1      18.517  -6.025   1.942  0.00  0.00    +0.000 C 
ATOM      2  C7  UNL     1      20.028  -6.247   1.763  0.00  0.00    +0.000 C 
ATOM      3  C8  UNL     1      20.329  -7.301   2.819  0.00  0.00    +0.000 C 
ATOM      4  C9  UNL     1      19.134  -8.264   2.758  0.00  0.00    +0.000 C 
ATOM      5  C10 UNL     1      18.776  -8.811   4.134  0.00  0.00    +0.000 C 
ATOM      6  C11 UNL     1      17.972  -7.460   2.121  0.00  0.00    +0.000 C 
ENDROOT
BRANCH   1  12
ATOM      7  C1  UNL     1      14.581  -3.110   0.341  0.00  0.00    +0.000 C 
ATOM      8  C2  UNL     1      15.927  -3.757   0.190  0.00  0.00    +0.000 C 
ATOM      9  C3  UNL     1      16.631  -3.554  -0.989  0.00  0.00    +0.000 C 
ATOM     10  N1  UNL     1      17.832  -4.096  -1.258  0.00  0.00    +0.000 NA
ATOM     11  C4  UNL     1      18.382  -4.878  -0.306  0.00  0.00    +0.000 C 
ATOM     12  C5  UNL     1      17.803  -5.152   0.932  0.00  0.00    +0.000 C 
ATOM     13  C17 UNL     1      16.537  -4.564   1.171  0.00  0.00    +0.000 C 
BRANCH  13  14
ATOM     14  C18 UNL     1      15.855  -4.824   2.464  0.00  0.00    +0.000 C 
ATOM     15  N2  UNL     1      15.647  -3.909   3.357  0.00  0.00    +0.000 NA
BRANCH  15  16
ATOM     16  O2  UNL     1      14.996  -4.485   4.454  0.00  0.00    +0.000 OA
ATOM     17  H   UNL     1      15.480  -4.694   5.230  0.00  0.00    +0.000 HD
ENDBRANCH  15  16
ENDBRANCH  13  14
ENDBRANCH   1  12
BRANCH   6  18
ATOM     18  C12 UNL     1      17.550  -8.101   0.796  0.00  0.00    +0.000 C 
ATOM     19  O1  UNL     1      18.378  -8.403  -0.061  0.00  0.00    +0.000 OA
BRANCH  18  20
ATOM     20  C13 UNL     1      16.057  -8.350   0.621  0.00  0.00    +0.000 C 
BRANCH  20  21
ATOM     21  C14 UNL     1      15.288  -8.513   1.940  0.00  0.00    +0.000 C 
ATOM     22  C15 UNL     1      13.878  -7.937   1.797  0.00  0.00    +0.000 C 
ATOM     23  C16 UNL     1      15.203  -9.981   2.364  0.00  0.00    +0.000 C 
ENDBRANCH  20  21
ENDBRANCH  18  20
ENDBRANCH   6  18
TORSDOF 6
ENDMDL
MODEL 4
REMARK VINA RESULT:    -5.656     22.512     25.477
REMARK INTER + INTRA:          -9.005
REMARK INTER:                  -7.468
REMARK INTRA:                  -1.537
REMARK UNBOUND:                -1.531
REMARK  Name = ligantes_geracao2\Derivado_006.pdb
REMARK  10 active torsions:
REMARK  status: ('A' for Active; 'I' for Inactive)
REMARK    1  A    between atoms: C1_1  and  C2_2
REMARK    2  A    between atoms: C5_6  and  C6_7
REMARK    3  A    between atoms: C9_10  and  C10_11
REMARK    4  A    between atoms: C11_12  and  C12_13
REMARK    5  A    between atoms: C12_13  and  C13_15
REMARK    6  A    between atoms: C13_15  and  C14_16
REMARK    7  A    between atoms: C14_16  and  C15_17
REMARK    8  A    between atoms: C14_16  and  C16_18
REMARK    9  A    between atoms: C17_19  and  C18_20
REMARK   10  A    between atoms: N2_21  and  O2_22
REMARK                            x       y       z     vdW  Elec       q    Type
REMARK                         _______ _______ _______ _____ _____    ______ ____
ROOT
ATOM      1  C6  UNL     1       1.762  -1.656  20.076  0.00  0.00    +0.000 C 
ATOM      2  C7  UNL     1       1.860  -2.639  21.254  0.00  0.00    +0.000 C 
ATOM      3  C8  UNL     1       2.409  -1.758  22.368  0.00  0.00    +0.000 C 
ATOM      4  C9  UNL     1       1.672  -0.420  22.203  0.00  0.00    +0.000 C 
ATOM      5  C10 UNL     1       2.564   0.765  22.552  0.00  0.00    +0.000 C 
ATOM      6  C11 UNL     1       1.186  -0.381  20.732  0.00  0.00    +0.000 C 
ENDROOT
BRANCH   1  12
ATOM      7  C1  UNL     1       0.828  -1.498  15.011  0.00  0.00    +0.000 C 
ATOM      8  C2  UNL     1       0.657  -2.051  16.396  0.00  0.00    +0.000 C 
ATOM      9  C3  UNL     1      -0.208  -3.121  16.579  0.00  0.00    +0.000 C 
ATOM     10  N1  UNL     1      -0.469  -3.690  17.770  0.00  0.00    +0.000 NA
ATOM     11  C4  UNL     1       0.169  -3.186  18.846  0.00  0.00    +0.000 C 
ATOM     12  C5  UNL     1       1.081  -2.132  18.810  0.00  0.00    +0.000 C 
ATOM     13  C17 UNL     1       1.320  -1.559  17.538  0.00  0.00    +0.000 C 
BRANCH  13  14
ATOM     14  C18 UNL     1       2.270  -0.423  17.427  0.00  0.00    +0.000 C 
ATOM     15  N2  UNL     1       1.901   0.819  17.451  0.00  0.00    +0.000 NA
BRANCH  15  16
ATOM     16  O2  UNL     1       3.033   1.631  17.312  0.00  0.00    +0.000 OA
ATOM     17  H   UNL     1       3.281   1.949  16.466  0.00  0.00    +0.000 HD
ENDBRANCH  15  16
ENDBRANCH  13  14
ENDBRANCH   1  12
BRANCH   6  18
ATOM     18  C12 UNL     1      -0.344  -0.330  20.683  0.00  0.00    +0.000 C 
ATOM     19  O1  UNL     1      -1.032  -1.065  21.390  0.00  0.00    +0.000 OA
BRANCH  18  20
ATOM     20  C13 UNL     1      -0.948   0.688  19.723  0.00  0.00    +0.000 C 
BRANCH  20  21
ATOM     21  C14 UNL     1      -1.927   0.085  18.705  0.00  0.00    +0.000 C 
ATOM     22  C15 UNL     1      -3.367   0.353  19.147  0.00  0.00    +0.000 C 
ATOM     23  C16 UNL     1      -1.706   0.657  17.303  0.00  0.00    +0.000 C 
ENDBRANCH  20  21
ENDBRANCH  18  20
ENDBRANCH   6  18
TORSDOF 6
ENDMDL
MODEL 5
REMARK VINA RESULT:    -5.635     22.625     25.568
REMARK INTER + INTRA:          -8.977
REMARK INTER:                  -7.756
REMARK INTRA:                  -1.221
REMARK UNBOUND:                -1.531
REMARK  Name = ligantes_geracao2\Derivado_006.pdb
REMARK  10 active torsions:
REMARK  status: ('A' for Active; 'I' for Inactive)
REMARK    1  A    between atoms: C1_1  and  C2_2
REMARK    2  A    between atoms: C5_6  and  C6_7
REMARK    3  A    between atoms: C9_10  and  C10_11
REMARK    4  A    between atoms: C11_12  and  C12_13
REMARK    5  A    between atoms: C12_13  and  C13_15
REMARK    6  A    between atoms: C13_15  and  C14_16
REMARK    7  A    between atoms: C14_16  and  C15_17
REMARK    8  A    between atoms: C14_16  and  C16_18
REMARK    9  A    between atoms: C17_19  and  C18_20
REMARK   10  A    between atoms: N2_21  and  O2_22
REMARK                            x       y       z     vdW  Elec       q    Type
REMARK                         _______ _______ _______ _____ _____    ______ ____
ROOT
ATOM      1  C6  UNL     1      -0.498   0.585  19.530  0.00  0.00    +0.000 C 
ATOM      2  C7  UNL     1      -1.903   0.115  19.938  0.00  0.00    +0.000 C 
ATOM      3  C8  UNL     1      -2.677   0.230  18.631  0.00  0.00    +0.000 C 
ATOM      4  C9  UNL     1      -1.697  -0.266  17.557  0.00  0.00    +0.000 C 
ATOM      5  C10 UNL     1      -1.859   0.499  16.248  0.00  0.00    +0.000 C 
ATOM      6  C11 UNL     1      -0.281  -0.104  18.164  0.00  0.00    +0.000 C 
ENDROOT
BRANCH   1  12
ATOM      7  C1  UNL     1       4.055   1.871  21.574  0.00  0.00    +0.000 C 
ATOM      8  C2  UNL     1       2.783   1.078  21.511  0.00  0.00    +0.000 C 
ATOM      9  C3  UNL     1       2.563   0.100  22.471  0.00  0.00    +0.000 C 
ATOM     10  N1  UNL     1       1.479  -0.695  22.511  0.00  0.00    +0.000 NA
ATOM     11  C4  UNL     1       0.546  -0.511  21.555  0.00  0.00    +0.000 C 
ATOM     12  C5  UNL     1       0.620   0.445  20.543  0.00  0.00    +0.000 C 
ATOM     13  C17 UNL     1       1.780   1.256  20.537  0.00  0.00    +0.000 C 
BRANCH  13  14
ATOM     14  C18 UNL     1       1.932   2.287  19.479  0.00  0.00    +0.000 C 
ATOM     15  N2  UNL     1       2.632   2.107  18.404  0.00  0.00    +0.000 NA
BRANCH  15  16
ATOM     16  O2  UNL     1       2.578   3.270  17.627  0.00  0.00    +0.000 OA
ATOM     17  H   UNL     1       1.790   3.492  17.169  0.00  0.00    +0.000 HD
ENDBRANCH  15  16
ENDBRANCH  13  14
ENDBRANCH   1  12
BRANCH   6  18
ATOM     18  C12 UNL     1       0.397  -1.471  18.293  0.00  0.00    +0.000 C 
ATOM     19  O1  UNL     1      -0.229  -2.465  18.657  0.00  0.00    +0.000 OA
BRANCH  18  20
ATOM     20  C13 UNL     1       1.877  -1.519  17.931  0.00  0.00    +0.000 C 
BRANCH  20  21
ATOM     21  C14 UNL     1       2.171  -1.218  16.454  0.00  0.00    +0.000 C 
ATOM     22  C15 UNL     1       3.631  -1.548  16.135  0.00  0.00    +0.000 C 
ATOM     23  C16 UNL     1       1.251  -2.011  15.523  0.00  0.00    +0.000 C 
ENDBRANCH  20  21
ENDBRANCH  18  20
ENDBRANCH   6  18
TORSDOF 6
ENDMDL
MODEL 6
REMARK VINA RESULT:    -5.433     22.207     25.023
REMARK INTER + INTRA:          -8.711
REMARK INTER:                  -7.361
REMARK INTRA:                  -1.349
REMARK UNBOUND:                -1.531
REMARK  Name = ligantes_geracao2\Derivado_006.pdb
REMARK  10 active torsions:
REMARK  status: ('A' for Active; 'I' for Inactive)
REMARK    1  A    between atoms: C1_1  and  C2_2
REMARK    2  A    between atoms: C5_6  and  C6_7
REMARK    3  A    between atoms: C9_10  and  C10_11
REMARK    4  A    between atoms: C11_12  and  C12_13
REMARK    5  A    between atoms: C12_13  and  C13_15
REMARK    6  A    between atoms: C13_15  and  C14_16
REMARK    7  A    between atoms: C14_16  and  C15_17
REMARK    8  A    between atoms: C14_16  and  C16_18
REMARK    9  A    between atoms: C17_19  and  C18_20
REMARK   10  A    between atoms: N2_21  and  O2_22
REMARK                            x       y       z     vdW  Elec       q    Type
REMARK                         _______ _______ _______ _____ _____    ______ ____
ROOT
ATOM      1  C6  UNL     1       1.652  -1.697  19.992  0.00  0.00    +0.000 C 
ATOM      2  C7  UNL     1       1.514  -2.375  21.364  0.00  0.00    +0.000 C 
ATOM      3  C8  UNL     1       2.437  -1.534  22.236  0.00  0.00    +0.000 C 
ATOM      4  C9  UNL     1       2.195  -0.089  21.774  0.00  0.00    +0.000 C 
ATOM      5  C10 UNL     1       3.471   0.743  21.828  0.00  0.00    +0.000 C 
ATOM      6  C11 UNL     1       1.617  -0.191  20.340  0.00  0.00    +0.000 C 
ENDROOT
BRANCH   1  12
ATOM      7  C1  UNL     1       0.330  -2.239  15.041  0.00  0.00    +0.000 C 
ATOM      8  C2  UNL     1       0.125  -2.415  16.516  0.00  0.00    +0.000 C 
ATOM      9  C3  UNL     1      -1.019  -3.070  16.953  0.00  0.00    +0.000 C 
ATOM     10  N1  UNL     1      -1.333  -3.269  18.245  0.00  0.00    +0.000 NA
ATOM     11  C4  UNL     1      -0.464  -2.808  19.168  0.00  0.00    +0.000 C 
ATOM     12  C5  UNL     1       0.733  -2.154  18.878  0.00  0.00    +0.000 C 
ATOM     13  C17 UNL     1       1.020  -1.962  17.506  0.00  0.00    +0.000 C 
BRANCH  13  14
ATOM     14  C18 UNL     1       2.272  -1.260  17.123  0.00  0.00    +0.000 C 
ATOM     15  N2  UNL     1       3.299  -1.862  16.614  0.00  0.00    +0.000 NA
BRANCH  15  16
ATOM     16  O2  UNL     1       4.308  -0.919  16.381  0.00  0.00    +0.000 OA
ATOM     17  H   UNL     1       4.255  -0.069  16.772  0.00  0.00    +0.000 HD
ENDBRANCH  15  16
ENDBRANCH  13  14
ENDBRANCH   1  12
BRANCH   6  18
ATOM     18  C12 UNL     1       0.202   0.392  20.298  0.00  0.00    +0.000 C 
ATOM     19  O1  UNL     1      -0.652   0.059  21.119  0.00  0.00    +0.000 OA
BRANCH  18  20
ATOM     20  C13 UNL     1      -0.069   1.409  19.196  0.00  0.00    +0.000 C 
BRANCH  20  21
ATOM     21  C14 UNL     1       1.197   2.043  18.602  0.00  0.00    +0.000 C 
ATOM     22  C15 UNL     1       1.012   2.266  17.100  0.00  0.00    +0.000 C 
ATOM     23  C16 UNL     1       1.532   3.372  19.282  0.00  0.00    +0.000 C 
ENDBRANCH  20  21
ENDBRANCH  18  20
ENDBRANCH   6  18
TORSDOF 6
ENDMDL
MODEL 7
REMARK VINA RESULT:    -5.386     23.622     26.510
REMARK INTER + INTRA:          -8.648
REMARK INTER:                  -7.407
REMARK INTRA:                  -1.241
REMARK UNBOUND:                -1.531
REMARK  Name = ligantes_geracao2\Derivado_006.pdb
REMARK  10 active torsions:
REMARK  status: ('A' for Active; 'I' for Inactive)
REMARK    1  A    between atoms: C1_1  and  C2_2
REMARK    2  A    between atoms: C5_6  and  C6_7
REMARK    3  A    between atoms: C9_10  and  C10_11
REMARK    4  A    between atoms: C11_12  and  C12_13
REMARK    5  A    between atoms: C12_13  and  C13_15
REMARK    6  A    between atoms: C13_15  and  C14_16
REMARK    7  A    between atoms: C14_16  and  C15_17
REMARK    8  A    between atoms: C14_16  and  C16_18
REMARK    9  A    between atoms: C17_19  and  C18_20
REMARK   10  A    between atoms: N2_21  and  O2_22
REMARK                            x       y       z     vdW  Elec       q    Type
REMARK                         _______ _______ _______ _____ _____    ______ ____
ROOT
ATOM      1  C6  UNL     1      -0.419  -0.230  18.357  0.00  0.00    +0.000 C 
ATOM      2  C7  UNL     1      -1.360  -1.259  17.708  0.00  0.00    +0.000 C 
ATOM      3  C8  UNL     1      -0.416  -2.413  17.399  0.00  0.00    +0.000 C 
ATOM      4  C9  UNL     1       0.510  -2.494  18.622  0.00  0.00    +0.000 C 
ATOM      5  C10 UNL     1       1.927  -2.897  18.233  0.00  0.00    +0.000 C 
ATOM      6  C11 UNL     1       0.455  -1.097  19.291  0.00  0.00    +0.000 C 
ENDROOT
BRANCH   1  12
ATOM      7  C1  UNL     1      -0.235   4.583  20.187  0.00  0.00    +0.000 C 
ATOM      8  C2  UNL     1      -0.934   3.306  19.824  0.00  0.00    +0.000 C 
ATOM      9  C3  UNL     1      -2.300   3.211  20.053  0.00  0.00    +0.000 C 
ATOM     10  N1  UNL     1      -3.037   2.116  19.797  0.00  0.00    +0.000 NA
ATOM     11  C4  UNL     1      -2.397   1.051  19.272  0.00  0.00    +0.000 C 
ATOM     12  C5  UNL     1      -1.037   1.010  18.968  0.00  0.00    +0.000 C 
ATOM     13  C17 UNL     1      -0.299   2.182  19.259  0.00  0.00    +0.000 C 
BRANCH  13  14
ATOM     14  C18 UNL     1       1.158   2.205  18.974  0.00  0.00    +0.000 C 
ATOM     15  N2  UNL     1       1.663   2.677  17.878  0.00  0.00    +0.000 NA
BRANCH  15  16
ATOM     16  O2  UNL     1       3.056   2.538  17.923  0.00  0.00    +0.000 OA
ATOM     17  H   UNL     1       3.458   1.750  17.613  0.00  0.00    +0.000 HD
ENDBRANCH  15  16
ENDBRANCH  13  14
ENDBRANCH   1  12
BRANCH   6  18
ATOM     18  C12 UNL     1      -0.122  -1.210  20.704  0.00  0.00    +0.000 C 
ATOM     19  O1  UNL     1      -1.148  -1.850  20.927  0.00  0.00    +0.000 OA
BRANCH  18  20
ATOM     20  C13 UNL     1       0.658  -0.498  21.803  0.00  0.00    +0.000 C 
BRANCH  20  21
ATOM     21  C14 UNL     1       2.173  -0.749  21.761  0.00  0.00    +0.000 C 
ATOM     22  C15 UNL     1       2.909   0.389  22.470  0.00  0.00    +0.000 C 
ATOM     23  C16 UNL     1       2.541  -2.084  22.412  0.00  0.00    +0.000 C 
ENDBRANCH  20  21
ENDBRANCH  18  20
ENDBRANCH   6  18
TORSDOF 6
ENDMDL
MODEL 8
REMARK VINA RESULT:    -5.271     24.724     26.811
REMARK INTER + INTRA:          -8.496
REMARK INTER:                  -7.377
REMARK INTRA:                  -1.119
REMARK UNBOUND:                -1.531
REMARK  Name = ligantes_geracao2\Derivado_006.pdb
REMARK  10 active torsions:
REMARK  status: ('A' for Active; 'I' for Inactive)
REMARK    1  A    between atoms: C1_1  and  C2_2
REMARK    2  A    between atoms: C5_6  and  C6_7
REMARK    3  A    between atoms: C9_10  and  C10_11
REMARK    4  A    between atoms: C11_12  and  C12_13
REMARK    5  A    between atoms: C12_13  and  C13_15
REMARK    6  A    between atoms: C13_15  and  C14_16
REMARK    7  A    between atoms: C14_16  and  C15_17
REMARK    8  A    between atoms: C14_16  and  C16_18
REMARK    9  A    between atoms: C17_19  and  C18_20
REMARK   10  A    between atoms: N2_21  and  O2_22
REMARK                            x       y       z     vdW  Elec       q    Type
REMARK                         _______ _______ _______ _____ _____    ______ ____
ROOT
ATOM      1  C6  UNL     1      -0.553  -0.408  20.451  0.00  0.00    +0.000 C 
ATOM      2  C7  UNL     1       0.577  -0.082  21.440  0.00  0.00    +0.000 C 
ATOM      3  C8  UNL     1       1.448  -1.329  21.361  0.00  0.00    +0.000 C 
ATOM      4  C9  UNL     1       1.461  -1.697  19.869  0.00  0.00    +0.000 C 
ATOM      5  C10 UNL     1       1.490  -3.206  19.659  0.00  0.00    +0.000 C 
ATOM      6  C11 UNL     1       0.198  -1.040  19.257  0.00  0.00    +0.000 C 
ENDROOT
BRANCH   1  12
ATOM      7  C1  UNL     1      -5.151   1.328  18.902  0.00  0.00    +0.000 C 
ATOM      8  C2  UNL     1      -3.744   1.497  19.394  0.00  0.00    +0.000 C 
ATOM      9  C3  UNL     1      -3.259   2.783  19.586  0.00  0.00    +0.000 C 
ATOM     10  N1  UNL     1      -2.011   3.071  19.998  0.00  0.00    +0.000 NA
ATOM     11  C4  UNL     1      -1.191   2.030  20.248  0.00  0.00    +0.000 C 
ATOM     12  C5  UNL     1      -1.545   0.688  20.121  0.00  0.00    +0.000 C 
ATOM     13  C17 UNL     1      -2.866   0.432  19.681  0.00  0.00    +0.000 C 
BRANCH  13  14
ATOM     14  C18 UNL     1      -3.309  -0.975  19.510  0.00  0.00    +0.000 C 
ATOM     15  N2  UNL     1      -3.892  -1.657  20.444  0.00  0.00    +0.000 NA
BRANCH  15  16
ATOM     16  O2  UNL     1      -4.166  -2.943  19.963  0.00  0.00    +0.000 OA
ATOM     17  H   UNL     1      -4.033  -3.689  20.516  0.00  0.00    +0.000 HD
ENDBRANCH  15  16
ENDBRANCH  13  14
ENDBRANCH   1  12
BRANCH   6  18
ATOM     18  C12 UNL     1       0.600  -0.009  18.199  0.00  0.00    +0.000 C 
ATOM     19  O1  UNL     1      -0.177   0.330  17.308  0.00  0.00    +0.000 OA
BRANCH  18  20
ATOM     20  C13 UNL     1       2.002   0.572  18.331  0.00  0.00    +0.000 C 
BRANCH  20  21
ATOM     21  C14 UNL     1       2.049   1.951  19.006  0.00  0.00    +0.000 C 
ATOM     22  C15 UNL     1       3.230   2.015  19.977  0.00  0.00    +0.000 C 
ATOM     23  C16 UNL     1       2.168   3.078  17.978  0.00  0.00    +0.000 C 
ENDBRANCH  20  21
ENDBRANCH  18  20
ENDBRANCH   6  18
TORSDOF 6
ENDMDL
MODEL 9
REMARK VINA RESULT:    -5.185     22.213     25.165
REMARK INTER + INTRA:          -8.382
REMARK INTER:                  -7.423
REMARK INTRA:                  -0.960
REMARK UNBOUND:                -1.531
REMARK  Name = ligantes_geracao2\Derivado_006.pdb
REMARK  10 active torsions:
REMARK  status: ('A' for Active; 'I' for Inactive)
REMARK    1  A    between atoms: C1_1  and  C2_2
REMARK    2  A    between atoms: C5_6  and  C6_7
REMARK    3  A    between atoms: C9_10  and  C10_11
REMARK    4  A    between atoms: C11_12  and  C12_13
REMARK    5  A    between atoms: C12_13  and  C13_15
REMARK    6  A    between atoms: C13_15  and  C14_16
REMARK    7  A    between atoms: C14_16  and  C15_17
REMARK    8  A    between atoms: C14_16  and  C16_18
REMARK    9  A    between atoms: C17_19  and  C18_20
REMARK   10  A    between atoms: N2_21  and  O2_22
REMARK                            x       y       z     vdW  Elec       q    Type
REMARK                         _______ _______ _______ _____ _____    ______ ____
ROOT
ATOM      1  C6  UNL     1       0.399  -2.216  19.496  0.00  0.00    +0.000 C 
ATOM      2  C7  UNL     1      -0.648  -2.639  20.539  0.00  0.00    +0.000 C 
ATOM      3  C8  UNL     1       0.218  -3.023  21.732  0.00  0.00    +0.000 C 
ATOM      4  C9  UNL     1       1.328  -1.961  21.761  0.00  0.00    +0.000 C 
ATOM      5  C10 UNL     1       2.659  -2.546  22.219  0.00  0.00    +0.000 C 
ATOM      6  C11 UNL     1       1.401  -1.382  20.326  0.00  0.00    +0.000 C 
ENDROOT
BRANCH   1  12
ATOM      7  C1  UNL     1       0.942  -0.738  14.589  0.00  0.00    +0.000 C 
ATOM      8  C2  UNL     1       0.175  -0.907  15.868  0.00  0.00    +0.000 C 
ATOM      9  C3  UNL     1      -1.138  -0.460  15.917  0.00  0.00    +0.000 C 
ATOM     10  N1  UNL     1      -1.923  -0.528  17.007  0.00  0.00    +0.000 NA
ATOM     11  C4  UNL     1      -1.389  -1.080  18.116  0.00  0.00    +0.000 C 
ATOM     12  C5  UNL     1      -0.096  -1.592  18.208  0.00  0.00    +0.000 C 
ATOM     13  C17 UNL     1       0.696  -1.495  17.038  0.00  0.00    +0.000 C 
BRANCH  13  14
ATOM     14  C18 UNL     1       2.089  -2.007  17.068  0.00  0.00    +0.000 C 
ATOM     15  N2  UNL     1       2.406  -3.229  16.776  0.00  0.00    +0.000 NA
BRANCH  15  16
ATOM     16  O2  UNL     1       3.790  -3.384  16.913  0.00  0.00    +0.000 OA
ATOM     17  H   UNL     1       4.345  -3.327  16.159  0.00  0.00    +0.000 HD
ENDBRANCH  15  16
ENDBRANCH  13  14
ENDBRANCH   1  12
BRANCH   6  18
ATOM     18  C12 UNL     1       1.058   0.111  20.341  0.00  0.00    +0.000 C 
ATOM     19  O1  UNL     1       0.075   0.535  20.946  0.00  0.00    +0.000 OA
BRANCH  18  20
ATOM     20  C13 UNL     1       2.012   1.023  19.578  0.00  0.00    +0.000 C 
BRANCH  20  21
ATOM     21  C14 UNL     1       2.897   1.897  20.478  0.00  0.00    +0.000 C 
ATOM     22  C15 UNL     1       2.169   3.199  20.818  0.00  0.00    +0.000 C 
ATOM     23  C16 UNL     1       3.280   1.170  21.769  0.00  0.00    +0.000 C 
ENDBRANCH  20  21
ENDBRANCH  18  20
ENDBRANCH   6  18
TORSDOF 6
ENDMDL
