MODEL 1
REMARK VINA RESULT:    -5.873      0.000      0.000
REMARK INTER + INTRA:          -9.157
REMARK INTER:                  -7.761
REMARK INTRA:                  -1.396
REMARK UNBOUND:                -1.396
REMARK  Name = ligantes_geracao2\Derivado_007.pdb
REMARK  8 active torsions:
REMARK  status: ('A' for Active; 'I' for Inactive)
REMARK    1  A    between atoms: C1_1  and  C2_2
REMARK    2  A    between atoms: C2_2  and  C3_3
REMARK    3  A    between atoms: C3_3  and  C4_4
REMARK    4  A    between atoms: C4_4  and  C5_6
REMARK    5  A    between atoms: C6_7  and  C7_8
REMARK    6  A    between atoms: C10_11  and  C11_12
REMARK    7  A    between atoms: C15_17  and  C16_18
REMARK    8  A    between atoms: N2_19  and  O2_20
REMARK                            x       y       z     vdW  Elec       q    Type
REMARK                         _______ _______ _______ _____ _____    ______ ____
ROOT
ATOM      1  C5  UNL     1       1.556   0.953  20.854  0.00  0.00    +0.000 C 
ATOM      2  C6  UNL     1       2.275   0.738  22.207  0.00  0.00    +0.000 C 
ATOM      3  C7  UNL     1       3.794   0.948  22.184  0.00  0.00    +0.000 C 
ATOM      4  C8  UNL     1       1.945  -0.726  22.501  0.00  0.00    +0.000 C 
ATOM      5  C9  UNL     1       2.133  -1.431  21.163  0.00  0.00    +0.000 C 
ATOM      6  C10 UNL     1       1.808  -0.376  20.083  0.00  0.00    +0.000 C 
ENDROOT
BRANCH   6   7
ATOM      7  C11 UNL     1       0.674  -0.855  19.194  0.00  0.00    +0.000 C 
ATOM      8  C12 UNL     1      -0.653  -0.644  19.581  0.00  0.00    +0.000 C 
ATOM      9  N1  UNL     1      -1.741  -0.974  18.850  0.00  0.00    +0.000 NA
ATOM     10  C13 UNL     1      -1.524  -1.577  17.668  0.00  0.00    +0.000 C 
ATOM     11  C14 UNL     1      -0.264  -1.879  17.195  0.00  0.00    +0.000 C 
ATOM     12  C15 UNL     1       0.847  -1.536  17.975  0.00  0.00    +0.000 C 
BRANCH  12  13
ATOM     13  C16 UNL     1       2.145  -1.969  17.412  0.00  0.00    +0.000 C 
ATOM     14  N2  UNL     1       2.695  -3.110  17.675  0.00  0.00    +0.000 NA
BRANCH  14  15
ATOM     15  O2  UNL     1       3.898  -3.209  16.965  0.00  0.00    +0.000 OA
ATOM     16  H   UNL     1       4.571  -3.788  17.262  0.00  0.00    +0.000 HD
ENDBRANCH  14  15
ENDBRANCH  12  13
ENDBRANCH   6   7
BRANCH   1  17
ATOM     17  C4  UNL     1       1.969   2.243  20.133  0.00  0.00    +0.000 C 
ATOM     18  O1  UNL     1       1.628   3.349  20.561  0.00  0.00    +0.000 OA
BRANCH  17  19
ATOM     19  C3  UNL     1       2.668   2.154  18.791  0.00  0.00    +0.000 C 
BRANCH  19  21
ATOM     20  C1  UNL     1       1.165   2.016  16.779  0.00  0.00    +0.000 C 
ATOM     21  C2  UNL     1       1.913   2.939  17.727  0.00  0.00    +0.000 C 
ENDBRANCH  19  21
ENDBRANCH  17  19
ENDBRANCH   1  17
TORSDOF 6
ENDMDL
MODEL 2
REMARK VINA RESULT:    -5.794     22.772     25.254
REMARK INTER + INTRA:          -9.053
REMARK INTER:                  -7.913
REMARK INTRA:                  -1.140
REMARK UNBOUND:                -1.396
REMARK  Name = ligantes_geracao2\Derivado_007.pdb
REMARK  8 active torsions:
REMARK  status: ('A' for Active; 'I' for Inactive)
REMARK    1  A    between atoms: C1_1  and  C2_2
REMARK    2  A    between atoms: C2_2  and  C3_3
REMARK    3  A    between atoms: C3_3  and  C4_4
REMARK    4  A    between atoms: C4_4  and  C5_6
REMARK    5  A    between atoms: C6_7  and  C7_8
REMARK    6  A    between atoms: C10_11  and  C11_12
REMARK    7  A    between atoms: C15_17  and  C16_18
REMARK    8  A    between atoms: N2_19  and  O2_20
REMARK                            x       y       z     vdW  Elec       q    Type
REMARK                         _______ _______ _______ _____ _____    ______ ____
ROOT
ATOM      1  C5  UNL     1      18.588  -7.729   1.986  0.00  0.00    +0.000 C 
ATOM      2  C6  UNL     1      19.851  -8.296   2.677  0.00  0.00    +0.000 C 
ATOM      3  C7  UNL     1      19.752  -8.450   4.200  0.00  0.00    +0.000 C 
ATOM      4  C8  UNL     1      20.899  -7.243   2.316  0.00  0.00    +0.000 C 
ATOM      5  C9  UNL     1      20.181  -5.914   2.514  0.00  0.00    +0.000 C 
ATOM      6  C10 UNL     1      18.690  -6.194   2.227  0.00  0.00    +0.000 C 
ENDROOT
BRANCH   6   7
ATOM      7  C11 UNL     1      18.189  -5.309   1.100  0.00  0.00    +0.000 C 
ATOM      8  C12 UNL     1      18.954  -5.155  -0.060  0.00  0.00    +0.000 C 
ATOM      9  N1  UNL     1      18.587  -4.441  -1.148  0.00  0.00    +0.000 NA
ATOM     10  C13 UNL     1      17.402  -3.811  -1.095  0.00  0.00    +0.000 C 
ATOM     11  C14 UNL     1      16.574  -3.849   0.009  0.00  0.00    +0.000 C 
ATOM     12  C15 UNL     1      16.981  -4.587   1.127  0.00  0.00    +0.000 C 
BRANCH  12  13
ATOM     13  C16 UNL     1      16.058  -4.504   2.281  0.00  0.00    +0.000 C 
ATOM     14  N2  UNL     1      16.052  -3.522   3.124  0.00  0.00    +0.000 NA
BRANCH  14  15
ATOM     15  O2  UNL     1      15.047  -3.745   4.073  0.00  0.00    +0.000 OA
ATOM     16  H   UNL     1      15.074  -4.510   4.612  0.00  0.00    +0.000 HD
ENDBRANCH  14  15
ENDBRANCH  12  13
ENDBRANCH   6   7
BRANCH   1  17
ATOM     17  C4  UNL     1      17.284  -8.400   2.434  0.00  0.00    +0.000 C 
ATOM     18  O1  UNL     1      16.526  -7.847   3.237  0.00  0.00    +0.000 OA
BRANCH  17  19
ATOM     19  C3  UNL     1      16.999  -9.827   2.013  0.00  0.00    +0.000 C 
BRANCH  19  21
ATOM     20  C1  UNL     1      18.176 -11.679   3.242  0.00  0.00    +0.000 C 
ATOM     21  C2  UNL     1      16.967 -10.758   3.218  0.00  0.00    +0.000 C 
ENDBRANCH  19  21
ENDBRANCH  17  19
ENDBRANCH   1  17
TORSDOF 6
ENDMDL
MODEL 3
REMARK VINA RESULT:    -5.738     21.990     24.626
REMARK INTER + INTRA:          -8.980
REMARK INTER:                  -7.714
REMARK INTRA:                  -1.265
REMARK UNBOUND:                -1.396
REMARK  Name = ligantes_geracao2\Derivado_007.pdb
REMARK  8 active torsions:
REMARK  status: ('A' for Active; 'I' for Inactive)
REMARK    1  A    between atoms: C1_1  and  C2_2
REMARK    2  A    between atoms: C2_2  and  C3_3
REMARK    3  A    between atoms: C3_3  and  C4_4
REMARK    4  A    between atoms: C4_4  and  C5_6
REMARK    5  A    between atoms: C6_7  and  C7_8
REMARK    6  A    between atoms: C10_11  and  C11_12
REMARK    7  A    between atoms: C15_17  and  C16_18
REMARK    8  A    between atoms: N2_19  and  O2_20
REMARK                            x       y       z     vdW  Elec       q    Type
REMARK                         _______ _______ _______ _____ _____    ______ ____
ROOT
ATOM      1  C5  UNL     1      17.050  -6.074  -0.155  0.00  0.00    +0.000 C 
ATOM      2  C6  UNL     1      17.297  -5.541  -1.586  0.00  0.00    +0.000 C 
ATOM      3  C7  UNL     1      18.664  -4.884  -1.815  0.00  0.00    +0.000 C 
ATOM      4  C8  UNL     1      16.179  -4.506  -1.725  0.00  0.00    +0.000 C 
ATOM      5  C9  UNL     1      16.175  -3.774  -0.389  0.00  0.00    +0.000 C 
ATOM      6  C10 UNL     1      16.663  -4.802   0.655  0.00  0.00    +0.000 C 
ENDROOT
BRANCH   6   7
ATOM      7  C11 UNL     1      15.618  -4.996   1.740  0.00  0.00    +0.000 C 
ATOM      8  C12 UNL     1      14.689  -6.034   1.637  0.00  0.00    +0.000 C 
ATOM      9  N1  UNL     1      13.752  -6.339   2.563  0.00  0.00    +0.000 NA
ATOM     10  C13 UNL     1      13.699  -5.561   3.658  0.00  0.00    +0.000 C 
ATOM     11  C14 UNL     1      14.532  -4.480   3.857  0.00  0.00    +0.000 C 
ATOM     12  C15 UNL     1      15.488  -4.179   2.879  0.00  0.00    +0.000 C 
BRANCH  12  13
ATOM     13  C16 UNL     1      16.280  -2.959   3.154  0.00  0.00    +0.000 C 
ATOM     14  N2  UNL     1      16.081  -1.827   2.561  0.00  0.00    +0.000 NA
BRANCH  14  15
ATOM     15  O2  UNL     1      16.982  -0.884   3.069  0.00  0.00    +0.000 OA
ATOM     16  H   UNL     1      17.896  -0.960   2.879  0.00  0.00    +0.000 HD
ENDBRANCH  14  15
ENDBRANCH  12  13
ENDBRANCH   6   7
BRANCH   1  17
ATOM     17  C4  UNL     1      18.212  -6.905   0.404  0.00  0.00    +0.000 C 
ATOM     18  O1  UNL     1      18.571  -7.949  -0.147  0.00  0.00    +0.000 OA
BRANCH  17  19
ATOM     19  C3  UNL     1      18.822  -6.527   1.739  0.00  0.00    +0.000 C 
BRANCH  19  21
ATOM     20  C1  UNL     1      20.247  -4.493   2.138  0.00  0.00    +0.000 C 
ATOM     21  C2  UNL     1      20.196  -5.895   1.553  0.00  0.00    +0.000 C 
ENDBRANCH  19  21
ENDBRANCH  17  19
ENDBRANCH   1  17
TORSDOF 6
ENDMDL
MODEL 4
REMARK VINA RESULT:    -5.675     12.199     14.458
REMARK INTER + INTRA:          -8.896
REMARK INTER:                  -8.179
REMARK INTRA:                  -0.717
REMARK UNBOUND:                -1.396
REMARK  Name = ligantes_geracao2\Derivado_007.pdb
REMARK  8 active torsions:
REMARK  status: ('A' for Active; 'I' for Inactive)
REMARK    1  A    between atoms: C1_1  and  C2_2
REMARK    2  A    between atoms: C2_2  and  C3_3
REMARK    3  A    between atoms: C3_3  and  C4_4
REMARK    4  A    between atoms: C4_4  and  C5_6
REMARK    5  A    between atoms: C6_7  and  C7_8
REMARK    6  A    between atoms: C10_11  and  C11_12
REMARK    7  A    between atoms: C15_17  and  C16_18
REMARK    8  A    between atoms: N2_19  and  O2_20
REMARK                            x       y       z     vdW  Elec       q    Type
REMARK                         _______ _______ _______ _____ _____    ______ ____
ROOT
ATOM      1  C5  UNL     1      -4.885 -13.933  20.548  0.00  0.00    +0.000 C 
ATOM      2  C6  UNL     1      -6.318 -14.288  21.012  0.00  0.00    +0.000 C 
ATOM      3  C7  UNL     1      -7.347 -13.158  20.886  0.00  0.00    +0.000 C 
ATOM      4  C8  UNL     1      -6.087 -14.637  22.483  0.00  0.00    +0.000 C 
ATOM      5  C9  UNL     1      -5.130 -13.561  22.980  0.00  0.00    +0.000 C 
ATOM      6  C10 UNL     1      -4.288 -13.148  21.752  0.00  0.00    +0.000 C 
ENDROOT
BRANCH   6   7
ATOM      7  C11 UNL     1      -2.810 -13.368  22.022  0.00  0.00    +0.000 C 
ATOM      8  C12 UNL     1      -2.395 -14.455  22.796  0.00  0.00    +0.000 C 
ATOM      9  N1  UNL     1      -1.110 -14.784  23.057  0.00  0.00    +0.000 NA
ATOM     10  C13 UNL     1      -0.159 -13.982  22.548  0.00  0.00    +0.000 C 
ATOM     11  C14 UNL     1      -0.440 -12.854  21.804  0.00  0.00    +0.000 C 
ATOM     12  C15 UNL     1      -1.779 -12.530  21.557  0.00  0.00    +0.000 C 
BRANCH  12  13
ATOM     13  C16 UNL     1      -1.973 -11.264  20.814  0.00  0.00    +0.000 C 
ATOM     14  N2  UNL     1      -1.112 -10.787  19.974  0.00  0.00    +0.000 NA
BRANCH  14  15
ATOM     15  O2  UNL     1      -1.614  -9.596  19.437  0.00  0.00    +0.000 OA
ATOM     16  H   UNL     1      -2.171  -9.621  18.684  0.00  0.00    +0.000 HD
ENDBRANCH  14  15
ENDBRANCH  12  13
ENDBRANCH   6   7
BRANCH   1  17
ATOM     17  C4  UNL     1      -4.833 -13.227  19.187  0.00  0.00    +0.000 C 
ATOM     18  O1  UNL     1      -4.925 -13.865  18.135  0.00  0.00    +0.000 OA
BRANCH  17  19
ATOM     19  C3  UNL     1      -4.505 -11.749  19.128  0.00  0.00    +0.000 C 
BRANCH  19  21
ATOM     20  C1  UNL     1      -5.315  -9.948  17.570  0.00  0.00    +0.000 C 
ATOM     21  C2  UNL     1      -4.524 -11.240  17.692  0.00  0.00    +0.000 C 
ENDBRANCH  19  21
ENDBRANCH  17  19
ENDBRANCH   1  17
TORSDOF 6
ENDMDL
MODEL 5
REMARK VINA RESULT:    -5.644      2.308      4.236
REMARK INTER + INTRA:          -8.855
REMARK INTER:                  -7.736
REMARK INTRA:                  -1.118
REMARK UNBOUND:                -1.396
REMARK  Name = ligantes_geracao2\Derivado_007.pdb
REMARK  8 active torsions:
REMARK  status: ('A' for Active; 'I' for Inactive)
REMARK    1  A    between atoms: C1_1  and  C2_2
REMARK    2  A    between atoms: C2_2  and  C3_3
REMARK    3  A    between atoms: C3_3  and  C4_4
REMARK    4  A    between atoms: C4_4  and  C5_6
REMARK    5  A    between atoms: C6_7  and  C7_8
REMARK    6  A    between atoms: C10_11  and  C11_12
REMARK    7  A    between atoms: C15_17  and  C16_18
REMARK    8  A    between atoms: N2_19  and  O2_20
REMARK                            x       y       z     vdW  Elec       q    Type
REMARK                         _______ _______ _______ _____ _____    ______ ____
ROOT
ATOM      1  C5  UNL     1       2.265   0.721  19.979  0.00  0.00    +0.000 C 
ATOM      2  C6  UNL     1       2.229   2.163  19.418  0.00  0.00    +0.000 C 
ATOM      3  C7  UNL     1       1.310   3.135  20.168  0.00  0.00    +0.000 C 
ATOM      4  C8  UNL     1       1.711   1.928  17.999  0.00  0.00    +0.000 C 
ATOM      5  C9  UNL     1       0.590   0.910  18.170  0.00  0.00    +0.000 C 
ATOM      6  C10 UNL     1       0.974   0.067  19.406  0.00  0.00    +0.000 C 
ENDROOT
BRANCH   6   7
ATOM      7  C11 UNL     1       1.080  -1.402  19.036  0.00  0.00    +0.000 C 
ATOM      8  C12 UNL     1       1.847  -1.791  17.934  0.00  0.00    +0.000 C 
ATOM      9  N1  UNL     1       2.060  -3.067  17.543  0.00  0.00    +0.000 NA
ATOM     10  C13 UNL     1       1.464  -4.035  18.259  0.00  0.00    +0.000 C 
ATOM     11  C14 UNL     1       0.647  -3.778  19.342  0.00  0.00    +0.000 C 
ATOM     12  C15 UNL     1       0.434  -2.448  19.721  0.00  0.00    +0.000 C 
BRANCH  12  13
ATOM     13  C16 UNL     1      -0.514  -2.279  20.846  0.00  0.00    +0.000 C 
ATOM     14  N2  UNL     1      -1.799  -2.351  20.716  0.00  0.00    +0.000 NA
BRANCH  14  15
ATOM     15  O2  UNL     1      -2.392  -2.168  21.971  0.00  0.00    +0.000 OA
ATOM     16  H   UNL     1      -2.239  -1.379  22.451  0.00  0.00    +0.000 HD
ENDBRANCH  14  15
ENDBRANCH  12  13
ENDBRANCH   6   7
BRANCH   1  17
ATOM     17  C4  UNL     1       2.440   0.653  21.501  0.00  0.00    +0.000 C 
ATOM     18  O1  UNL     1       1.517   0.285  22.232  0.00  0.00    +0.000 OA
BRANCH  17  19
ATOM     19  C3  UNL     1       3.707   1.198  22.129  0.00  0.00    +0.000 C 
BRANCH  19  21
ATOM     20  C1  UNL     1       3.625   3.521  23.090  0.00  0.00    +0.000 C 
ATOM     21  C2  UNL     1       3.391   2.042  23.356  0.00  0.00    +0.000 C 
ENDBRANCH  19  21
ENDBRANCH  17  19
ENDBRANCH   1  17
TORSDOF 6
ENDMDL
MODEL 6
REMARK VINA RESULT:    -5.580     22.041     24.667
REMARK INTER + INTRA:          -8.770
REMARK INTER:                  -7.613
REMARK INTRA:                  -1.156
REMARK UNBOUND:                -1.396
REMARK  Name = ligantes_geracao2\Derivado_007.pdb
REMARK  8 active torsions:
REMARK  status: ('A' for Active; 'I' for Inactive)
REMARK    1  A    between atoms: C1_1  and  C2_2
REMARK    2  A    between atoms: C2_2  and  C3_3
REMARK    3  A    between atoms: C3_3  and  C4_4
REMARK    4  A    between atoms: C4_4  and  C5_6
REMARK    5  A    between atoms: C6_7  and  C7_8
REMARK    6  A    between atoms: C10_11  and  C11_12
REMARK    7  A    between atoms: C15_17  and  C16_18
REMARK    8  A    between atoms: N2_19  and  O2_20
REMARK                            x       y       z     vdW  Elec       q    Type
REMARK                         _______ _______ _______ _____ _____    ______ ____
ROOT
ATOM      1  C5  UNL     1      18.025  -8.615   3.321  0.00  0.00    +0.000 C 
ATOM      2  C6  UNL     1      18.009 -10.162   3.277  0.00  0.00    +0.000 C 
ATOM      3  C7  UNL     1      18.674 -10.790   2.047  0.00  0.00    +0.000 C 
ATOM      4  C8  UNL     1      16.508 -10.454   3.278  0.00  0.00    +0.000 C 
ATOM      5  C9  UNL     1      15.925  -9.435   2.306  0.00  0.00    +0.000 C 
ATOM      6  C10 UNL     1      16.855  -8.204   2.380  0.00  0.00    +0.000 C 
ENDROOT
BRANCH   6   7
ATOM      7  C11 UNL     1      16.072  -6.970   2.792  0.00  0.00    +0.000 C 
ATOM      8  C12 UNL     1      15.052  -7.074   3.741  0.00  0.00    +0.000 C 
ATOM      9  N1  UNL     1      14.327  -6.041   4.226  0.00  0.00    +0.000 NA
ATOM     10  C13 UNL     1      14.596  -4.820   3.733  0.00  0.00    +0.000 C 
ATOM     11  C14 UNL     1      15.549  -4.592   2.761  0.00  0.00    +0.000 C 
ATOM     12  C15 UNL     1      16.279  -5.680   2.268  0.00  0.00    +0.000 C 
BRANCH  12  13
ATOM     13  C16 UNL     1      17.222  -5.339   1.178  0.00  0.00    +0.000 C 
ATOM     14  N2  UNL     1      18.307  -4.657   1.357  0.00  0.00    +0.000 NA
BRANCH  14  15
ATOM     15  O2  UNL     1      18.973  -4.535   0.131  0.00  0.00    +0.000 OA
ATOM     16  H   UNL     1      19.905  -4.451   0.111  0.00  0.00    +0.000 HD
ENDBRANCH  14  15
ENDBRANCH  12  13
ENDBRANCH   6   7
BRANCH   1  17
ATOM     17  C4  UNL     1      19.395  -8.002   3.005  0.00  0.00    +0.000 C 
ATOM     18  O1  UNL     1      19.702  -7.689   1.852  0.00  0.00    +0.000 OA
BRANCH  17  19
ATOM     19  C3  UNL     1      20.445  -7.928   4.095  0.00  0.00    +0.000 C 
BRANCH  19  21
ATOM     20  C1  UNL     1      21.737 -10.075   4.317  0.00  0.00    +0.000 C 
ATOM     21  C2  UNL     1      21.704  -8.688   3.696  0.00  0.00    +0.000 C 
ENDBRANCH  19  21
ENDBRANCH  17  19
ENDBRANCH   1  17
TORSDOF 6
ENDMDL
MODEL 7
REMARK VINA RESULT:    -5.344     23.426     25.341
REMARK INTER + INTRA:          -8.459
REMARK INTER:                  -7.144
REMARK INTRA:                  -1.315
REMARK UNBOUND:                -1.396
REMARK  Name = ligantes_geracao2\Derivado_007.pdb
REMARK  8 active torsions:
REMARK  status: ('A' for Active; 'I' for Inactive)
REMARK    1  A    between atoms: C1_1  and  C2_2
REMARK    2  A    between atoms: C2_2  and  C3_3
REMARK    3  A    between atoms: C3_3  and  C4_4
REMARK    4  A    between atoms: C4_4  and  C5_6
REMARK    5  A    between atoms: C6_7  and  C7_8
REMARK    6  A    between atoms: C10_11  and  C11_12
REMARK    7  A    between atoms: C15_17  and  C16_18
REMARK    8  A    between atoms: N2_19  and  O2_20
REMARK                            x       y       z     vdW  Elec       q    Type
REMARK                         _______ _______ _______ _____ _____    ______ ____
ROOT
ATOM      1  C5  UNL     1      17.512  -8.669   3.113  0.00  0.00    +0.000 C 
ATOM      2  C6  UNL     1      16.922 -10.089   3.283  0.00  0.00    +0.000 C 
ATOM      3  C7  UNL     1      17.755 -11.223   2.674  0.00  0.00    +0.000 C 
ATOM      4  C8  UNL     1      15.586  -9.957   2.551  0.00  0.00    +0.000 C 
ATOM      5  C9  UNL     1      15.926  -9.177   1.286  0.00  0.00    +0.000 C 
ATOM      6  C10 UNL     1      17.125  -8.277   1.657  0.00  0.00    +0.000 C 
ENDROOT
BRANCH   6   7
ATOM      7  C11 UNL     1      16.785  -6.815   1.429  0.00  0.00    +0.000 C 
ATOM      8  C12 UNL     1      16.031  -6.118   2.377  0.00  0.00    +0.000 C 
ATOM      9  N1  UNL     1      15.715  -4.805   2.311  0.00  0.00    +0.000 NA
ATOM     10  C13 UNL     1      16.140  -4.127   1.231  0.00  0.00    +0.000 C 
ATOM     11  C14 UNL     1      16.854  -4.711   0.205  0.00  0.00    +0.000 C 
ATOM     12  C15 UNL     1      17.161  -6.075   0.292  0.00  0.00    +0.000 C 
BRANCH  12  13
ATOM     13  C16 UNL     1      17.864  -6.619  -0.891  0.00  0.00    +0.000 C 
ATOM     14  N2  UNL     1      17.949  -5.997  -2.022  0.00  0.00    +0.000 NA
BRANCH  14  15
ATOM     15  O2  UNL     1      18.695  -6.777  -2.914  0.00  0.00    +0.000 OA
ATOM     16  H   UNL     1      19.576  -7.015  -2.703  0.00  0.00    +0.000 HD
ENDBRANCH  14  15
ENDBRANCH  12  13
ENDBRANCH   6   7
BRANCH   1  17
ATOM     17  C4  UNL     1      19.001  -8.571   3.467  0.00  0.00    +0.000 C 
ATOM     18  O1  UNL     1      19.405  -8.844   4.601  0.00  0.00    +0.000 OA
BRANCH  17  19
ATOM     19  C3  UNL     1      19.968  -7.979   2.462  0.00  0.00    +0.000 C 
BRANCH  19  21
ATOM     20  C1  UNL     1      20.259  -5.541   1.919  0.00  0.00    +0.000 C 
ATOM     21  C2  UNL     1      20.505  -6.637   2.942  0.00  0.00    +0.000 C 
ENDBRANCH  19  21
ENDBRANCH  17  19
ENDBRANCH   1  17
TORSDOF 6
ENDMDL
MODEL 8
REMARK VINA RESULT:    -5.307      2.686      5.370
REMARK INTER + INTRA:          -8.410
REMARK INTER:                  -7.310
REMARK INTRA:                  -1.100
REMARK UNBOUND:                -1.396
REMARK  Name = ligantes_geracao2\Derivado_007.pdb
REMARK  8 active torsions:
REMARK  status: ('A' for Active; 'I' for Inactive)
REMARK    1  A    between atoms: C1_1  and  C2_2
REMARK    2  A    between atoms: C2_2  and  C3_3
REMARK    3  A    between atoms: C3_3  and  C4_4
REMARK    4  A    between atoms: C4_4  and  C5_6
REMARK    5  A    between atoms: C6_7  and  C7_8
REMARK    6  A    between atoms: C10_11  and  C11_12
REMARK    7  A    between atoms: C15_17  and  C16_18
REMARK    8  A    between atoms: N2_19  and  O2_20
REMARK                            x       y       z     vdW  Elec       q    Type
REMARK                         _______ _______ _______ _____ _____    ______ ____
ROOT
ATOM      1  C5  UNL     1       1.342  -2.030  19.727  0.00  0.00    +0.000 C 
ATOM      2  C6  UNL     1       0.100  -2.922  19.965  0.00  0.00    +0.000 C 
ATOM      3  C7  UNL     1      -0.952  -2.893  18.850  0.00  0.00    +0.000 C 
ATOM      4  C8  UNL     1      -0.469  -2.320  21.250  0.00  0.00    +0.000 C 
ATOM      5  C9  UNL     1      -0.365  -0.815  21.040  0.00  0.00    +0.000 C 
ATOM      6  C10 UNL     1       0.855  -0.603  20.116  0.00  0.00    +0.000 C 
ENDROOT
BRANCH   6   7
ATOM      7  C11 UNL     1       1.883   0.291  20.786  0.00  0.00    +0.000 C 
ATOM      8  C12 UNL     1       2.156   0.141  22.148  0.00  0.00    +0.000 C 
ATOM      9  N1  UNL     1       3.086   0.838  22.840  0.00  0.00    +0.000 NA
ATOM     10  C13 UNL     1       3.783   1.766  22.163  0.00  0.00    +0.000 C 
ATOM     11  C14 UNL     1       3.577   2.039  20.825  0.00  0.00    +0.000 C 
ATOM     12  C15 UNL     1       2.602   1.311  20.134  0.00  0.00    +0.000 C 
BRANCH  12  13
ATOM     13  C16 UNL     1       2.409   1.731  18.728  0.00  0.00    +0.000 C 
ATOM     14  N2  UNL     1       2.156   2.949  18.373  0.00  0.00    +0.000 NA
BRANCH  14  15
ATOM     15  O2  UNL     1       2.055   3.002  16.977  0.00  0.00    +0.000 OA
ATOM     16  H   UNL     1       1.940   3.826  16.547  0.00  0.00    +0.000 HD
ENDBRANCH  14  15
ENDBRANCH  12  13
ENDBRANCH   6   7
BRANCH   1  17
ATOM     17  C4  UNL     1       1.951  -2.180  18.328  0.00  0.00    +0.000 C 
ATOM     18  O1  UNL     1       1.657  -1.400  17.418  0.00  0.00    +0.000 OA
BRANCH  17  19
ATOM     19  C3  UNL     1       2.802  -3.394  18.013  0.00  0.00    +0.000 C 
BRANCH  19  21
ATOM     20  C1  UNL     1       1.709  -5.656  17.879  0.00  0.00    +0.000 C 
ATOM     21  C2  UNL     1       2.046  -4.378  17.129  0.00  0.00    +0.000 C 
ENDBRANCH  19  21
ENDBRANCH  17  19
ENDBRANCH   1  17
TORSDOF 6
ENDMDL
MODEL 9
REMARK VINA RESULT:    -5.275      2.749      4.638
REMARK INTER + INTRA:          -8.367
REMARK INTER:                  -7.000
REMARK INTRA:                  -1.368
REMARK UNBOUND:                -1.396
REMARK  Name = ligantes_geracao2\Derivado_007.pdb
REMARK  8 active torsions:
REMARK  status: ('A' for Active; 'I' for Inactive)
REMARK    1  A    between atoms: C1_1  and  C2_2
REMARK    2  A    between atoms: C2_2  and  C3_3
REMARK    3  A    between atoms: C3_3  and  C4_4
REMARK    4  A    between atoms: C4_4  and  C5_6
REMARK    5  A    between atoms: C6_7  and  C7_8
REMARK    6  A    between atoms: C10_11  and  C11_12
REMARK    7  A    between atoms: C15_17  and  C16_18
REMARK    8  A    between atoms: N2_19  and  O2_20
REMARK                            x       y       z     vdW  Elec       q    Type
REMARK                         _______ _______ _______ _____ _____    ______ ____
ROOT
ATOM      1  C5  UNL     1       1.596  -1.665  20.122  0.00  0.00    +0.000 C 
ATOM      2  C6  UNL     1       2.326  -1.506  21.477  0.00  0.00    +0.000 C 
ATOM      3  C7  UNL     1       2.014  -2.586  22.520  0.00  0.00    +0.000 C 
ATOM      4  C8  UNL     1       1.809  -0.146  21.947  0.00  0.00    +0.000 C 
ATOM      5  C9  UNL     1       0.319  -0.179  21.629  0.00  0.00    +0.000 C 
ATOM      6  C10 UNL     1       0.172  -1.100  20.397  0.00  0.00    +0.000 C 
ENDROOT
BRANCH   6   7
ATOM      7  C11 UNL     1      -0.480  -0.351  19.248  0.00  0.00    +0.000 C 
ATOM      8  C12 UNL     1       0.125   0.796  18.729  0.00  0.00    +0.000 C 
ATOM      9  N1  UNL     1      -0.330   1.511  17.675  0.00  0.00    +0.000 NA
ATOM     10  C13 UNL     1      -1.471   1.094  17.101  0.00  0.00    +0.000 C 
ATOM     11  C14 UNL     1      -2.186   0.001  17.547  0.00  0.00    +0.000 C 
ATOM     12  C15 UNL     1      -1.699  -0.716  18.646  0.00  0.00    +0.000 C 
BRANCH  12  13
ATOM     13  C16 UNL     1      -2.577  -1.823  19.090  0.00  0.00    +0.000 C 
ATOM     14  N2  UNL     1      -3.471  -1.700  20.017  0.00  0.00    +0.000 NA
BRANCH  14  15
ATOM     15  O2  UNL     1      -4.134  -2.923  20.172  0.00  0.00    +0.000 OA
ATOM     16  H   UNL     1      -4.994  -2.946  20.541  0.00  0.00    +0.000 HD
ENDBRANCH  14  15
ENDBRANCH  12  13
ENDBRANCH   6   7
BRANCH   1  17
ATOM     17  C4  UNL     1       1.661  -3.086  19.548  0.00  0.00    +0.000 C 
ATOM     18  O1  UNL     1       2.708  -3.535  19.074  0.00  0.00    +0.000 OA
BRANCH  17  19
ATOM     19  C3  UNL     1       0.385  -3.893  19.413  0.00  0.00    +0.000 C 
BRANCH  19  21
ATOM     20  C1  UNL     1       0.098  -3.391  16.966  0.00  0.00    +0.000 C 
ATOM     21  C2  UNL     1       0.253  -4.480  18.014  0.00  0.00    +0.000 C 
ENDBRANCH  19  21
ENDBRANCH  17  19
ENDBRANCH   1  17
TORSDOF 6
ENDMDL
