MODEL 1
REMARK VINA RESULT:    -6.266      0.000      0.000
REMARK INTER + INTRA:         -10.329
REMARK INTER:                  -8.648
REMARK INTRA:                  -1.682
REMARK UNBOUND:                -1.682
REMARK  Name = ligantes_geracao2\Derivado_002.pdb
REMARK  10 active torsions:
REMARK  status: ('A' for Active; 'I' for Inactive)
REMARK    1  A    between atoms: C1_1  and  C2_2
REMARK    2  A    between atoms: C2_2  and  C3_3
REMARK    3  A    between atoms: C6_6  and  C7_7
REMARK    4  A    between atoms: C11_12  and  C12_13
REMARK    5  A    between atoms: N2_14  and  O1_15
REMARK    6  A    between atoms: C13_16  and  C14_17
REMARK    7  A    between atoms: C14_17  and  C15_19
REMARK    8  A    between atoms: C15_19  and  C16_20
REMARK    9  A    between atoms: C16_20  and  C17_21
REMARK   10  A    between atoms: C16_20  and  C18_22
REMARK                            x       y       z     vdW  Elec       q    Type
REMARK                         _______ _______ _______ _____ _____    ______ ____
ROOT
ATOM      1  C3  UNL     1       3.621   1.953  21.363  0.00  0.00    +0.000 C 
ATOM      2  C4  UNL     1       3.298   1.005  22.520  0.00  0.00    +0.000 C 
ATOM      3  C5  UNL     1       2.472  -0.127  21.906  0.00  0.00    +0.000 C 
ATOM      4  C6  UNL     1       2.008   0.366  20.522  0.00  0.00    +0.000 C 
ATOM      5  C13 UNL     1       2.342   1.874  20.518  0.00  0.00    +0.000 C 
ENDROOT
BRANCH   4   6
ATOM      6  C7  UNL     1       0.586  -0.052  20.211  0.00  0.00    +0.000 C 
ATOM      7  C8  UNL     1      -0.502   0.730  20.600  0.00  0.00    +0.000 C 
ATOM      8  N1  UNL     1      -1.800   0.432  20.356  0.00  0.00    +0.000 NA
ATOM      9  C9  UNL     1      -2.054  -0.702  19.680  0.00  0.00    +0.000 C 
ATOM     10  C10 UNL     1      -1.069  -1.567  19.257  0.00  0.00    +0.000 C 
ATOM     11  C11 UNL     1       0.264  -1.247  19.539  0.00  0.00    +0.000 C 
BRANCH  11  12
ATOM     12  C12 UNL     1       1.300  -2.220  19.118  0.00  0.00    +0.000 C 
ATOM     13  N2  UNL     1       1.618  -3.246  19.843  0.00  0.00    +0.000 NA
BRANCH  13  14
ATOM     14  O1  UNL     1       2.616  -3.976  19.186  0.00  0.00    +0.000 OA
ATOM     15  H   UNL     1       2.980  -3.656  18.384  0.00  0.00    +0.000 HD
ENDBRANCH  13  14
ENDBRANCH  11  12
ENDBRANCH   4   6
BRANCH   1  17
ATOM     16  C1  UNL     1       3.462   3.681  23.222  0.00  0.00    +0.000 C 
ATOM     17  C2  UNL     1       3.949   3.381  21.811  0.00  0.00    +0.000 C 
ENDBRANCH   1  17
BRANCH   5  18
ATOM     18  C14 UNL     1       2.474   2.429  19.105  0.00  0.00    +0.000 C 
ATOM     19  O2  UNL     1       3.034   1.753  18.238  0.00  0.00    +0.000 OA
BRANCH  18  20
ATOM     20  C15 UNL     1       1.899   3.801  18.786  0.00  0.00    +0.000 C 
BRANCH  20  21
ATOM     21  C16 UNL     1       1.055   4.374  19.935  0.00  0.00    +0.000 C 
ATOM     22  C17 UNL     1       1.481   5.813  20.229  0.00  0.00    +0.000 C 
ATOM     23  C18 UNL     1      -0.437   4.330  19.601  0.00  0.00    +0.000 C 
ENDBRANCH  20  21
ENDBRANCH  18  20
ENDBRANCH   5  18
TORSDOF 7
ENDMDL
MODEL 2
REMARK VINA RESULT:    -6.107     24.822     26.856
REMARK INTER + INTRA:         -10.110
REMARK INTER:                  -8.469
REMARK INTRA:                  -1.640
REMARK UNBOUND:                -1.682
REMARK  Name = ligantes_geracao2\Derivado_002.pdb
REMARK  10 active torsions:
REMARK  status: ('A' for Active; 'I' for Inactive)
REMARK    1  A    between atoms: C1_1  and  C2_2
REMARK    2  A    between atoms: C2_2  and  C3_3
REMARK    3  A    between atoms: C6_6  and  C7_7
REMARK    4  A    between atoms: C11_12  and  C12_13
REMARK    5  A    between atoms: N2_14  and  O1_15
REMARK    6  A    between atoms: C13_16  and  C14_17
REMARK    7  A    between atoms: C14_17  and  C15_19
REMARK    8  A    between atoms: C15_19  and  C16_20
REMARK    9  A    between atoms: C16_20  and  C17_21
REMARK   10  A    between atoms: C16_20  and  C18_22
REMARK                            x       y       z     vdW  Elec       q    Type
REMARK                         _______ _______ _______ _____ _____    ______ ____
ROOT
ATOM      1  C3  UNL     1      20.040  -8.545   4.124  0.00  0.00    +0.000 C 
ATOM      2  C4  UNL     1      21.011  -7.519   3.534  0.00  0.00    +0.000 C 
ATOM      3  C5  UNL     1      20.139  -6.519   2.771  0.00  0.00    +0.000 C 
ATOM      4  C6  UNL     1      18.757  -7.177   2.604  0.00  0.00    +0.000 C 
ATOM      5  C13 UNL     1      18.976  -8.647   3.022  0.00  0.00    +0.000 C 
ENDROOT
BRANCH   4   6
ATOM      6  C7  UNL     1      18.152  -6.904   1.243  0.00  0.00    +0.000 C 
ATOM      7  C8  UNL     1      18.788  -7.314   0.071  0.00  0.00    +0.000 C 
ATOM      8  N1  UNL     1      18.313  -7.114  -1.182  0.00  0.00    +0.000 NA
ATOM      9  C9  UNL     1      17.134  -6.480  -1.299  0.00  0.00    +0.000 C 
ATOM     10  C10 UNL     1      16.417  -6.012  -0.219  0.00  0.00    +0.000 C 
ATOM     11  C11 UNL     1      16.938  -6.212   1.064  0.00  0.00    +0.000 C 
BRANCH  11  12
ATOM     12  C12 UNL     1      16.173  -5.653   2.203  0.00  0.00    +0.000 C 
ATOM     13  N2  UNL     1      16.297  -4.418   2.579  0.00  0.00    +0.000 NA
BRANCH  13  14
ATOM     14  O1  UNL     1      15.450  -4.187   3.669  0.00  0.00    +0.000 OA
ATOM     15  H   UNL     1      15.091  -3.333   3.813  0.00  0.00    +0.000 HD
ENDBRANCH  13  14
ENDBRANCH  11  12
ENDBRANCH   4   6
BRANCH   1  17
ATOM     16  C1  UNL     1      22.168  -9.935   4.082  0.00  0.00    +0.000 C 
ATOM     17  C2  UNL     1      20.692  -9.894   4.447  0.00  0.00    +0.000 C 
ENDBRANCH   1  17
BRANCH   5  18
ATOM     18  C14 UNL     1      17.678  -9.323   3.449  0.00  0.00    +0.000 C 
ATOM     19  O2  UNL     1      16.847  -8.684   4.100  0.00  0.00    +0.000 OA
BRANCH  18  20
ATOM     20  C15 UNL     1      17.423 -10.769   3.049  0.00  0.00    +0.000 C 
BRANCH  20  21
ATOM     21  C16 UNL     1      18.392 -11.265   1.965  0.00  0.00    +0.000 C 
ATOM     22  C17 UNL     1      18.981 -12.617   2.370  0.00  0.00    +0.000 C 
ATOM     23  C18 UNL     1      17.692 -11.387   0.610  0.00  0.00    +0.000 C 
ENDBRANCH  20  21
ENDBRANCH  18  20
ENDBRANCH   5  18
TORSDOF 7
ENDMDL
MODEL 3
REMARK VINA RESULT:    -5.969     24.396     26.216
REMARK INTER + INTRA:          -9.919
REMARK INTER:                  -8.176
REMARK INTRA:                  -1.742
REMARK UNBOUND:                -1.682
REMARK  Name = ligantes_geracao2\Derivado_002.pdb
REMARK  10 active torsions:
REMARK  status: ('A' for Active; 'I' for Inactive)
REMARK    1  A    between atoms: C1_1  and  C2_2
REMARK    2  A    between atoms: C2_2  and  C3_3
REMARK    3  A    between atoms: C6_6  and  C7_7
REMARK    4  A    between atoms: C11_12  and  C12_13
REMARK    5  A    between atoms: N2_14  and  O1_15
REMARK    6  A    between atoms: C13_16  and  C14_17
REMARK    7  A    between atoms: C14_17  and  C15_19
REMARK    8  A    between atoms: C15_19  and  C16_20
REMARK    9  A    between atoms: C16_20  and  C17_21
REMARK   10  A    between atoms: C16_20  and  C18_22
REMARK                            x       y       z     vdW  Elec       q    Type
REMARK                         _______ _______ _______ _____ _____    ______ ____
ROOT
ATOM      1  C3  UNL     1      17.145  -6.029  -0.669  0.00  0.00    +0.000 C 
ATOM      2  C4  UNL     1      17.809  -7.272  -1.267  0.00  0.00    +0.000 C 
ATOM      3  C5  UNL     1      18.084  -8.201  -0.083  0.00  0.00    +0.000 C 
ATOM      4  C6  UNL     1      17.940  -7.347   1.190  0.00  0.00    +0.000 C 
ATOM      5  C13 UNL     1      17.875  -5.894   0.675  0.00  0.00    +0.000 C 
ENDROOT
BRANCH   4   6
ATOM      6  C7  UNL     1      18.985  -7.690   2.232  0.00  0.00    +0.000 C 
ATOM      7  C8  UNL     1      20.298  -7.233   2.121  0.00  0.00    +0.000 C 
ATOM      8  N1  UNL     1      21.288  -7.489   3.008  0.00  0.00    +0.000 NA
ATOM      9  C9  UNL     1      20.974  -8.234   4.082  0.00  0.00    +0.000 C 
ATOM     10  C10 UNL     1      19.718  -8.758   4.298  0.00  0.00    +0.000 C 
ATOM     11  C11 UNL     1      18.717  -8.497   3.356  0.00  0.00    +0.000 C 
BRANCH  11  12
ATOM     12  C12 UNL     1      17.390  -9.115   3.585  0.00  0.00    +0.000 C 
ATOM     13  N2  UNL     1      17.063 -10.259   3.069  0.00  0.00    +0.000 NA
BRANCH  13  14
ATOM     14  O1  UNL     1      15.759 -10.580   3.465  0.00  0.00    +0.000 OA
ATOM     15  H   UNL     1      15.562 -11.441   3.778  0.00  0.00    +0.000 HD
ENDBRANCH  13  14
ENDBRANCH  11  12
ENDBRANCH   4   6
BRANCH   1  17
ATOM     16  C1  UNL     1      18.713  -4.282  -1.647  0.00  0.00    +0.000 C 
ATOM     17  C2  UNL     1      17.278  -4.779  -1.545  0.00  0.00    +0.000 C 
ENDBRANCH   1  17
BRANCH   5  18
ATOM     18  C14 UNL     1      17.203  -4.959   1.675  0.00  0.00    +0.000 C 
ATOM     19  O2  UNL     1      17.893  -4.167   2.322  0.00  0.00    +0.000 OA
BRANCH  18  20
ATOM     20  C15 UNL     1      15.692  -5.009   1.844  0.00  0.00    +0.000 C 
BRANCH  20  21
ATOM     21  C16 UNL     1      15.250  -5.982   2.948  0.00  0.00    +0.000 C 
ATOM     22  C17 UNL     1      14.476  -5.227   4.030  0.00  0.00    +0.000 C 
ATOM     23  C18 UNL     1      14.384  -7.108   2.379  0.00  0.00    +0.000 C 
ENDBRANCH  20  21
ENDBRANCH  18  20
ENDBRANCH   5  18
TORSDOF 7
ENDMDL
MODEL 4
REMARK VINA RESULT:    -5.865     24.505     26.332
REMARK INTER + INTRA:          -9.775
REMARK INTER:                  -7.850
REMARK INTRA:                  -1.925
REMARK UNBOUND:                -1.682
REMARK  Name = ligantes_geracao2\Derivado_002.pdb
REMARK  10 active torsions:
REMARK  status: ('A' for Active; 'I' for Inactive)
REMARK    1  A    between atoms: C1_1  and  C2_2
REMARK    2  A    between atoms: C2_2  and  C3_3
REMARK    3  A    between atoms: C6_6  and  C7_7
REMARK    4  A    between atoms: C11_12  and  C12_13
REMARK    5  A    between atoms: N2_14  and  O1_15
REMARK    6  A    between atoms: C13_16  and  C14_17
REMARK    7  A    between atoms: C14_17  and  C15_19
REMARK    8  A    between atoms: C15_19  and  C16_20
REMARK    9  A    between atoms: C16_20  and  C17_21
REMARK   10  A    between atoms: C16_20  and  C18_22
REMARK                            x       y       z     vdW  Elec       q    Type
REMARK                         _______ _______ _______ _____ _____    ______ ____
ROOT
ATOM      1  C3  UNL     1      16.899  -9.144   1.488  0.00  0.00    +0.000 C 
ATOM      2  C4  UNL     1      15.592  -8.991   2.270  0.00  0.00    +0.000 C 
ATOM      3  C5  UNL     1      14.991  -7.661   1.810  0.00  0.00    +0.000 C 
ATOM      4  C6  UNL     1      16.114  -6.898   1.083  0.00  0.00    +0.000 C 
ATOM      5  C13 UNL     1      17.396  -7.693   1.410  0.00  0.00    +0.000 C 
ENDROOT
BRANCH   4   6
ATOM      6  C7  UNL     1      16.094  -5.416   1.395  0.00  0.00    +0.000 C 
ATOM      7  C8  UNL     1      15.750  -4.944   2.662  0.00  0.00    +0.000 C 
ATOM      8  N1  UNL     1      15.713  -3.640   3.022  0.00  0.00    +0.000 NA
ATOM      9  C9  UNL     1      16.043  -2.733   2.086  0.00  0.00    +0.000 C 
ATOM     10  C10 UNL     1      16.385  -3.071   0.795  0.00  0.00    +0.000 C 
ATOM     11  C11 UNL     1      16.395  -4.424   0.440  0.00  0.00    +0.000 C 
BRANCH  11  12
ATOM     12  C12 UNL     1      16.716  -4.755  -0.968  0.00  0.00    +0.000 C 
ATOM     13  N2  UNL     1      17.773  -4.296  -1.562  0.00  0.00    +0.000 NA
BRANCH  13  14
ATOM     14  O1  UNL     1      17.805  -4.783  -2.874  0.00  0.00    +0.000 OA
ATOM     15  H   UNL     1      17.058  -4.681  -3.431  0.00  0.00    +0.000 HD
ENDBRANCH  13  14
ENDBRANCH  11  12
ENDBRANCH   4   6
BRANCH   1  17
ATOM     16  C1  UNL     1      17.312 -10.852   3.327  0.00  0.00    +0.000 C 
ATOM     17  C2  UNL     1      17.909 -10.082   2.157  0.00  0.00    +0.000 C 
ENDBRANCH   1  17
BRANCH   5  18
ATOM     18  C14 UNL     1      18.499  -7.451   0.387  0.00  0.00    +0.000 C 
ATOM     19  O2  UNL     1      18.370  -7.889  -0.759  0.00  0.00    +0.000 OA
BRANCH  18  20
ATOM     20  C15 UNL     1      19.733  -6.658   0.794  0.00  0.00    +0.000 C 
BRANCH  20  21
ATOM     21  C16 UNL     1      19.648  -6.125   2.233  0.00  0.00    +0.000 C 
ATOM     22  C17 UNL     1      20.556  -6.947   3.149  0.00  0.00    +0.000 C 
ATOM     23  C18 UNL     1      20.041  -4.648   2.299  0.00  0.00    +0.000 C 
ENDBRANCH  20  21
ENDBRANCH  18  20
ENDBRANCH   5  18
TORSDOF 7
ENDMDL
MODEL 5
REMARK VINA RESULT:    -5.839     24.440     26.385
REMARK INTER + INTRA:          -9.739
REMARK INTER:                  -8.131
REMARK INTRA:                  -1.609
REMARK UNBOUND:                -1.682
REMARK  Name = ligantes_geracao2\Derivado_002.pdb
REMARK  10 active torsions:
REMARK  status: ('A' for Active; 'I' for Inactive)
REMARK    1  A    between atoms: C1_1  and  C2_2
REMARK    2  A    between atoms: C2_2  and  C3_3
REMARK    3  A    between atoms: C6_6  and  C7_7
REMARK    4  A    between atoms: C11_12  and  C12_13
REMARK    5  A    between atoms: N2_14  and  O1_15
REMARK    6  A    between atoms: C13_16  and  C14_17
REMARK    7  A    between atoms: C14_17  and  C15_19
REMARK    8  A    between atoms: C15_19  and  C16_20
REMARK    9  A    between atoms: C16_20  and  C17_21
REMARK   10  A    between atoms: C16_20  and  C18_22
REMARK                            x       y       z     vdW  Elec       q    Type
REMARK                         _______ _______ _______ _____ _____    ______ ____
ROOT
ATOM      1  C3  UNL     1      19.863  -8.402   3.550  0.00  0.00    +0.000 C 
ATOM      2  C4  UNL     1      20.848  -7.312   3.121  0.00  0.00    +0.000 C 
ATOM      3  C5  UNL     1      19.988  -6.183   2.548  0.00  0.00    +0.000 C 
ATOM      4  C6  UNL     1      18.590  -6.778   2.298  0.00  0.00    +0.000 C 
ATOM      5  C13 UNL     1      18.782  -8.301   2.464  0.00  0.00    +0.000 C 
ENDROOT
BRANCH   4   6
ATOM      6  C7  UNL     1      17.972  -6.272   1.011  0.00  0.00    +0.000 C 
ATOM      7  C8  UNL     1      18.556  -6.540  -0.228  0.00  0.00    +0.000 C 
ATOM      8  N1  UNL     1      18.067  -6.130  -1.422  0.00  0.00    +0.000 NA
ATOM      9  C9  UNL     1      16.926  -5.419  -1.408  0.00  0.00    +0.000 C 
ATOM     10  C10 UNL     1      16.264  -5.075  -0.250  0.00  0.00    +0.000 C 
ATOM     11  C11 UNL     1      16.800  -5.492   0.973  0.00  0.00    +0.000 C 
BRANCH  11  12
ATOM     12  C12 UNL     1      16.096  -5.065   2.205  0.00  0.00    +0.000 C 
ATOM     13  N2  UNL     1      16.279  -3.895   2.734  0.00  0.00    +0.000 NA
BRANCH  13  14
ATOM     14  O1  UNL     1      15.480  -3.784   3.878  0.00  0.00    +0.000 OA
ATOM     15  H   UNL     1      15.843  -3.445   4.673  0.00  0.00    +0.000 HD
ENDBRANCH  13  14
ENDBRANCH  11  12
ENDBRANCH   4   6
BRANCH   1  17
ATOM     16  C1  UNL     1      21.794  -9.810   4.419  0.00  0.00    +0.000 C 
ATOM     17  C2  UNL     1      20.490  -9.798   3.635  0.00  0.00    +0.000 C 
ENDBRANCH   1  17
BRANCH   5  18
ATOM     18  C14 UNL     1      17.476  -9.012   2.796  0.00  0.00    +0.000 C 
ATOM     19  O2  UNL     1      17.050  -8.990   3.954  0.00  0.00    +0.000 OA
BRANCH  18  20
ATOM     20  C15 UNL     1      16.712  -9.723   1.688  0.00  0.00    +0.000 C 
BRANCH  20  21
ATOM     21  C16 UNL     1      15.247  -9.270   1.591  0.00  0.00    +0.000 C 
ATOM     22  C17 UNL     1      14.991  -8.617   0.232  0.00  0.00    +0.000 C 
ATOM     23  C18 UNL     1      14.290 -10.446   1.793  0.00  0.00    +0.000 C 
ENDBRANCH  20  21
ENDBRANCH  18  20
ENDBRANCH   5  18
TORSDOF 7
ENDMDL
MODEL 6
REMARK VINA RESULT:    -5.713     13.786     16.910
REMARK INTER + INTRA:          -9.565
REMARK INTER:                  -8.168
REMARK INTRA:                  -1.397
REMARK UNBOUND:                -1.682
REMARK  Name = ligantes_geracao2\Derivado_002.pdb
REMARK  10 active torsions:
REMARK  status: ('A' for Active; 'I' for Inactive)
REMARK    1  A    between atoms: C1_1  and  C2_2
REMARK    2  A    between atoms: C2_2  and  C3_3
REMARK    3  A    between atoms: C6_6  and  C7_7
REMARK    4  A    between atoms: C11_12  and  C12_13
REMARK    5  A    between atoms: N2_14  and  O1_15
REMARK    6  A    between atoms: C13_16  and  C14_17
REMARK    7  A    between atoms: C14_17  and  C15_19
REMARK    8  A    between atoms: C15_19  and  C16_20
REMARK    9  A    between atoms: C16_20  and  C17_21
REMARK   10  A    between atoms: C16_20  and  C18_22
REMARK                            x       y       z     vdW  Elec       q    Type
REMARK                         _______ _______ _______ _____ _____    ______ ____
ROOT
ATOM      1  C3  UNL     1      -3.338 -12.702  20.569  0.00  0.00    +0.000 C 
ATOM      2  C4  UNL     1      -3.002 -12.805  22.058  0.00  0.00    +0.000 C 
ATOM      3  C5  UNL     1      -3.752 -14.039  22.565  0.00  0.00    +0.000 C 
ATOM      4  C6  UNL     1      -4.793 -14.395  21.487  0.00  0.00    +0.000 C 
ATOM      5  C13 UNL     1      -4.797 -13.177  20.537  0.00  0.00    +0.000 C 
ENDROOT
BRANCH   4   6
ATOM      6  C7  UNL     1      -6.112 -14.837  22.086  0.00  0.00    +0.000 C 
ATOM      7  C8  UNL     1      -7.010 -13.915  22.625  0.00  0.00    +0.000 C 
ATOM      8  N1  UNL     1      -8.208 -14.227  23.174  0.00  0.00    +0.000 NA
ATOM      9  C9  UNL     1      -8.558 -15.525  23.190  0.00  0.00    +0.000 C 
ATOM     10  C10 UNL     1      -7.752 -16.532  22.705  0.00  0.00    +0.000 C 
ATOM     11  C11 UNL     1      -6.509 -16.187  22.162  0.00  0.00    +0.000 C 
BRANCH  11  12
ATOM     12  C12 UNL     1      -5.641 -17.293  21.696  0.00  0.00    +0.000 C 
ATOM     13  N2  UNL     1      -6.028 -18.530  21.714  0.00  0.00    +0.000 NA
BRANCH  13  14
ATOM     14  O1  UNL     1      -4.999 -19.336  21.212  0.00  0.00    +0.000 OA
ATOM     15  H   UNL     1      -4.841 -19.374  20.290  0.00  0.00    +0.000 HD
ENDBRANCH  13  14
ENDBRANCH  11  12
ENDBRANCH   4   6
BRANCH   1  17
ATOM     16  C1  UNL     1      -1.747 -10.758  20.174  0.00  0.00    +0.000 C 
ATOM     17  C2  UNL     1      -3.160 -11.292  19.995  0.00  0.00    +0.000 C 
ENDBRANCH   1  17
BRANCH   5  18
ATOM     18  C14 UNL     1      -5.324 -13.531  19.151  0.00  0.00    +0.000 C 
ATOM     19  O2  UNL     1      -5.184 -14.681  18.725  0.00  0.00    +0.000 OA
BRANCH  18  20
ATOM     20  C15 UNL     1      -6.027 -12.464  18.326  0.00  0.00    +0.000 C 
BRANCH  20  21
ATOM     21  C16 UNL     1      -7.124 -11.731  19.113  0.00  0.00    +0.000 C 
ATOM     22  C17 UNL     1      -7.562 -10.477  18.355  0.00  0.00    +0.000 C 
ATOM     23  C18 UNL     1      -8.330 -12.639  19.359  0.00  0.00    +0.000 C 
ENDBRANCH  20  21
ENDBRANCH  18  20
ENDBRANCH   5  18
TORSDOF 7
ENDMDL
MODEL 7
REMARK VINA RESULT:    -5.673      2.708      6.558
REMARK INTER + INTRA:          -9.510
REMARK INTER:                  -7.798
REMARK INTRA:                  -1.712
REMARK UNBOUND:                -1.682
REMARK  Name = ligantes_geracao2\Derivado_002.pdb
REMARK  10 active torsions:
REMARK  status: ('A' for Active; 'I' for Inactive)
REMARK    1  A    between atoms: C1_1  and  C2_2
REMARK    2  A    between atoms: C2_2  and  C3_3
REMARK    3  A    between atoms: C6_6  and  C7_7
REMARK    4  A    between atoms: C11_12  and  C12_13
REMARK    5  A    between atoms: N2_14  and  O1_15
REMARK    6  A    between atoms: C13_16  and  C14_17
REMARK    7  A    between atoms: C14_17  and  C15_19
REMARK    8  A    between atoms: C15_19  and  C16_20
REMARK    9  A    between atoms: C16_20  and  C17_21
REMARK   10  A    between atoms: C16_20  and  C18_22
REMARK                            x       y       z     vdW  Elec       q    Type
REMARK                         _______ _______ _______ _____ _____    ______ ____
ROOT
ATOM      1  C3  UNL     1       0.050  -3.710  17.845  0.00  0.00    +0.000 C 
ATOM      2  C4  UNL     1      -1.153  -3.153  18.610  0.00  0.00    +0.000 C 
ATOM      3  C5  UNL     1      -0.735  -1.758  19.076  0.00  0.00    +0.000 C 
ATOM      4  C6  UNL     1       0.795  -1.681  18.919  0.00  0.00    +0.000 C 
ATOM      5  C13 UNL     1       1.229  -3.137  18.644  0.00  0.00    +0.000 C 
ENDROOT
BRANCH   4   6
ATOM      6  C7  UNL     1       1.454  -0.944  20.066  0.00  0.00    +0.000 C 
ATOM      7  C8  UNL     1       1.534  -1.507  21.340  0.00  0.00    +0.000 C 
ATOM      8  N1  UNL     1       2.109  -0.919  22.415  0.00  0.00    +0.000 NA
ATOM      9  C9  UNL     1       2.651   0.298  22.235  0.00  0.00    +0.000 C 
ATOM     10  C10 UNL     1       2.622   0.967  21.030  0.00  0.00    +0.000 C 
ATOM     11  C11 UNL     1       2.003   0.347  19.939  0.00  0.00    +0.000 C 
BRANCH  11  12
ATOM     12  C12 UNL     1       1.940   1.110  18.670  0.00  0.00    +0.000 C 
ATOM     13  N2  UNL     1       2.468   2.288  18.546  0.00  0.00    +0.000 NA
BRANCH  13  14
ATOM     14  O1  UNL     1       2.251   2.748  17.241  0.00  0.00    +0.000 OA
ATOM     15  H   UNL     1       2.751   3.467  16.908  0.00  0.00    +0.000 HD
ENDBRANCH  13  14
ENDBRANCH  11  12
ENDBRANCH   4   6
BRANCH   1  17
ATOM     16  C1  UNL     1       0.388  -5.751  16.367  0.00  0.00    +0.000 C 
ATOM     17  C2  UNL     1       0.074  -5.240  17.766  0.00  0.00    +0.000 C 
ENDBRANCH   1  17
BRANCH   5  18
ATOM     18  C14 UNL     1       2.576  -3.211  17.935  0.00  0.00    +0.000 C 
ATOM     19  O2  UNL     1       3.361  -4.119  18.220  0.00  0.00    +0.000 OA
BRANCH  18  20
ATOM     20  C15 UNL     1       2.921  -2.172  16.878  0.00  0.00    +0.000 C 
BRANCH  20  21
ATOM     21  C16 UNL     1       2.272  -2.471  15.518  0.00  0.00    +0.000 C 
ATOM     22  C17 UNL     1       1.204  -1.421  15.206  0.00  0.00    +0.000 C 
ATOM     23  C18 UNL     1       3.316  -2.499  14.400  0.00  0.00    +0.000 C 
ENDBRANCH  20  21
ENDBRANCH  18  20
ENDBRANCH   5  18
TORSDOF 7
ENDMDL
MODEL 8
REMARK VINA RESULT:    -5.618     24.150     25.992
REMARK INTER + INTRA:          -9.435
REMARK INTER:                  -8.453
REMARK INTRA:                  -0.983
REMARK UNBOUND:                -1.682
REMARK  Name = ligantes_geracao2\Derivado_002.pdb
REMARK  10 active torsions:
REMARK  status: ('A' for Active; 'I' for Inactive)
REMARK    1  A    between atoms: C1_1  and  C2_2
REMARK    2  A    between atoms: C2_2  and  C3_3
REMARK    3  A    between atoms: C6_6  and  C7_7
REMARK    4  A    between atoms: C11_12  and  C12_13
REMARK    5  A    between atoms: N2_14  and  O1_15
REMARK    6  A    between atoms: C13_16  and  C14_17
REMARK    7  A    between atoms: C14_17  and  C15_19
REMARK    8  A    between atoms: C15_19  and  C16_20
REMARK    9  A    between atoms: C16_20  and  C17_21
REMARK   10  A    between atoms: C16_20  and  C18_22
REMARK                            x       y       z     vdW  Elec       q    Type
REMARK                         _______ _______ _______ _____ _____    ______ ____
ROOT
ATOM      1  C3  UNL     1      17.772  -5.858  -1.434  0.00  0.00    +0.000 C 
ATOM      2  C4  UNL     1      16.646  -4.911  -1.854  0.00  0.00    +0.000 C 
ATOM      3  C5  UNL     1      16.172  -4.238  -0.564  0.00  0.00    +0.000 C 
ATOM      4  C6  UNL     1      16.744  -5.068   0.601  0.00  0.00    +0.000 C 
ATOM      5  C13 UNL     1      17.281  -6.352  -0.066  0.00  0.00    +0.000 C 
ENDROOT
BRANCH   4   6
ATOM      6  C7  UNL     1      15.756  -5.214   1.740  0.00  0.00    +0.000 C 
ATOM      7  C8  UNL     1      14.875  -6.294   1.802  0.00  0.00    +0.000 C 
ATOM      8  N1  UNL     1      13.968  -6.501   2.786  0.00  0.00    +0.000 NA
ATOM      9  C9  UNL     1      13.923  -5.599   3.781  0.00  0.00    +0.000 C 
ATOM     10  C10 UNL     1      14.728  -4.482   3.826  0.00  0.00    +0.000 C 
ATOM     11  C11 UNL     1      15.643  -4.278   2.787  0.00  0.00    +0.000 C 
BRANCH  11  12
ATOM     12  C12 UNL     1      16.460  -3.043   2.833  0.00  0.00    +0.000 C 
ATOM     13  N2  UNL     1      15.967  -1.878   2.547  0.00  0.00    +0.000 NA
BRANCH  13  14
ATOM     14  O1  UNL     1      16.972  -0.913   2.682  0.00  0.00    +0.000 OA
ATOM     15  H   UNL     1      17.441  -0.615   1.927  0.00  0.00    +0.000 HD
ENDBRANCH  13  14
ENDBRANCH  11  12
ENDBRANCH   4   6
BRANCH   1  17
ATOM     16  C1  UNL     1      17.037  -8.153  -2.247  0.00  0.00    +0.000 C 
ATOM     17  C2  UNL     1      18.016  -7.001  -2.426  0.00  0.00    +0.000 C 
ENDBRANCH   1  17
BRANCH   5  18
ATOM     18  C14 UNL     1      18.343  -7.040   0.783  0.00  0.00    +0.000 C 
ATOM     19  O2  UNL     1      18.001  -7.889   1.611  0.00  0.00    +0.000 OA
BRANCH  18  20
ATOM     20  C15 UNL     1      19.808  -6.680   0.582  0.00  0.00    +0.000 C 
BRANCH  20  21
ATOM     21  C16 UNL     1      20.447  -6.069   1.839  0.00  0.00    +0.000 C 
ATOM     22  C17 UNL     1      19.730  -4.770   2.211  0.00  0.00    +0.000 C 
ATOM     23  C18 UNL     1      20.398  -7.045   3.015  0.00  0.00    +0.000 C 
ENDBRANCH  20  21
ENDBRANCH  18  20
ENDBRANCH   5  18
TORSDOF 7
ENDMDL
MODEL 9
REMARK VINA RESULT:    -5.561      2.608      5.363
REMARK INTER + INTRA:          -9.356
REMARK INTER:                  -7.559
REMARK INTRA:                  -1.797
REMARK UNBOUND:                -1.682
REMARK  Name = ligantes_geracao2\Derivado_002.pdb
REMARK  10 active torsions:
REMARK  status: ('A' for Active; 'I' for Inactive)
REMARK    1  A    between atoms: C1_1  and  C2_2
REMARK    2  A    between atoms: C2_2  and  C3_3
REMARK    3  A    between atoms: C6_6  and  C7_7
REMARK    4  A    between atoms: C11_12  and  C12_13
REMARK    5  A    between atoms: N2_14  and  O1_15
REMARK    6  A    between atoms: C13_16  and  C14_17
REMARK    7  A    between atoms: C14_17  and  C15_19
REMARK    8  A    between atoms: C15_19  and  C16_20
REMARK    9  A    between atoms: C16_20  and  C17_21
REMARK   10  A    between atoms: C16_20  and  C18_22
REMARK                            x       y       z     vdW  Elec       q    Type
REMARK                         _______ _______ _______ _____ _____    ______ ____
ROOT
ATOM      1  C3  UNL     1       0.273   2.175  17.733  0.00  0.00    +0.000 C 
ATOM      2  C4  UNL     1       1.675   2.599  17.291  0.00  0.00    +0.000 C 
ATOM      3  C5  UNL     1       2.605   2.203  18.439  0.00  0.00    +0.000 C 
ATOM      4  C6  UNL     1       1.706   1.921  19.658  0.00  0.00    +0.000 C 
ATOM      5  C13 UNL     1       0.316   2.450  19.243  0.00  0.00    +0.000 C 
ENDROOT
BRANCH   4   6
ATOM      6  C7  UNL     1       2.310   2.436  20.948  0.00  0.00    +0.000 C 
ATOM      7  C8  UNL     1       2.435   3.803  21.196  0.00  0.00    +0.000 C 
ATOM      8  N1  UNL     1       2.958   4.344  22.322  0.00  0.00    +0.000 NA
ATOM      9  C9  UNL     1       3.378   3.494  23.275  0.00  0.00    +0.000 C 
ATOM     10  C10 UNL     1       3.324   2.123  23.143  0.00  0.00    +0.000 C 
ATOM     11  C11 UNL     1       2.800   1.588  21.961  0.00  0.00    +0.000 C 
BRANCH  11  12
ATOM     12  C12 UNL     1       2.801   0.113  21.824  0.00  0.00    +0.000 C 
ATOM     13  N2  UNL     1       2.073  -0.651  22.577  0.00  0.00    +0.000 NA
BRANCH  13  14
ATOM     14  O1  UNL     1       2.284  -1.986  22.210  0.00  0.00    +0.000 OA
ATOM     15  H   UNL     1       2.056  -2.277  21.349  0.00  0.00    +0.000 HD
ENDBRANCH  13  14
ENDBRANCH  11  12
ENDBRANCH   4   6
BRANCH   1  17
ATOM     16  C1  UNL     1      -1.929   2.015  16.470  0.00  0.00    +0.000 C 
ATOM     17  C2  UNL     1      -0.852   2.937  17.024  0.00  0.00    +0.000 C 
ENDBRANCH   1  17
BRANCH   5  18
ATOM     18  C14 UNL     1      -0.808   1.802  20.043  0.00  0.00    +0.000 C 
ATOM     19  O2  UNL     1      -1.827   2.451  20.290  0.00  0.00    +0.000 OA
BRANCH  18  20
ATOM     20  C15 UNL     1      -0.658   0.361  20.507  0.00  0.00    +0.000 C 
BRANCH  20  21
ATOM     21  C16 UNL     1      -0.906  -0.655  19.381  0.00  0.00    +0.000 C 
ATOM     22  C17 UNL     1       0.360  -1.475  19.128  0.00  0.00    +0.000 C 
ATOM     23  C18 UNL     1      -2.070  -1.587  19.724  0.00  0.00    +0.000 C 
ENDBRANCH  20  21
ENDBRANCH  18  20
ENDBRANCH   5  18
TORSDOF 7
ENDMDL
