MODEL 1
REMARK VINA RESULT:    -7.270      0.000      0.000
REMARK INTER + INTRA:         -10.175
REMARK INTER:                  -9.607
REMARK INTRA:                  -0.568
REMARK UNBOUND:                -0.568
REMARK  Name = ligantes_geracao2\Derivado_006.pdb
REMARK  10 active torsions:
REMARK  status: ('A' for Active; 'I' for Inactive)
REMARK    1  A    between atoms: C1_1  and  C2_2
REMARK    2  A    between atoms: C5_6  and  C6_7
REMARK    3  A    between atoms: C9_10  and  C10_11
REMARK    4  A    between atoms: C11_12  and  C12_13
REMARK    5  A    between atoms: C12_13  and  C13_15
REMARK    6  A    between atoms: C13_15  and  C14_16
REMARK    7  A    between atoms: C14_16  and  C15_17
REMARK    8  A    between atoms: C14_16  and  C16_18
REMARK    9  A    between atoms: C17_19  and  C18_20
REMARK   10  A    between atoms: N2_21  and  O2_22
REMARK                            x       y       z     vdW  Elec       q    Type
REMARK                         _______ _______ _______ _____ _____    ______ ____
ROOT
ATOM      1  C6  UNL     1       0.195  61.115  71.260  0.00  0.00    +0.000 C 
ATOM      2  C7  UNL     1      -1.044  61.429  72.114  0.00  0.00    +0.000 C 
ATOM      3  C8  UNL     1      -1.338  60.085  72.767  0.00  0.00    +0.000 C 
ATOM      4  C9  UNL     1       0.044  59.519  73.128  0.00  0.00    +0.000 C 
ATOM      5  C10 UNL     1       0.093  58.004  72.975  0.00  0.00    +0.000 C 
ATOM      6  C11 UNL     1       1.054  60.239  72.199  0.00  0.00    +0.000 C 
ENDROOT
BRANCH   1  12
ATOM      7  C1  UNL     1       3.604  63.135  67.967  0.00  0.00    +0.000 C 
ATOM      8  C2  UNL     1       2.519  63.215  68.999  0.00  0.00    +0.000 C 
ATOM      9  C3  UNL     1       2.078  64.469  69.400  0.00  0.00    +0.000 C 
ATOM     10  N1  UNL     1       1.132  64.678  70.333  0.00  0.00    +0.000 NA
ATOM     11  C4  UNL     1       0.574  63.588  70.899  0.00  0.00    +0.000 C 
ATOM     12  C5  UNL     1       0.899  62.270  70.580  0.00  0.00    +0.000 C 
ATOM     13  C17 UNL     1       1.903  62.097  69.597  0.00  0.00    +0.000 C 
BRANCH  13  14
ATOM     14  C18 UNL     1       2.310  60.721  69.218  0.00  0.00    +0.000 C 
ATOM     15  N2  UNL     1       3.544  60.331  69.166  0.00  0.00    +0.000 NA
BRANCH  15  16
ATOM     16  O2  UNL     1       3.580  58.990  68.766  0.00  0.00    +0.000 OA
ATOM     17  H   UNL     1       2.961  58.379  69.117  0.00  0.00    +0.000 HD
ENDBRANCH  15  16
ENDBRANCH  13  14
ENDBRANCH   1  12
BRANCH   6  18
ATOM     18  C12 UNL     1       2.044  61.060  73.031  0.00  0.00    +0.000 C 
ATOM     19  O1  UNL     1       1.657  61.845  73.896  0.00  0.00    +0.000 OA
BRANCH  18  20
ATOM     20  C13 UNL     1       3.520  60.831  72.730  0.00  0.00    +0.000 C 
BRANCH  20  21
ATOM     21  C14 UNL     1       4.027  59.430  73.101  0.00  0.00    +0.000 C 
ATOM     22  C15 UNL     1       3.465  59.017  74.463  0.00  0.00    +0.000 C 
ATOM     23  C16 UNL     1       3.635  58.392  72.048  0.00  0.00    +0.000 C 
ENDBRANCH  20  21
ENDBRANCH  18  20
ENDBRANCH   6  18
TORSDOF 6
ENDMDL
MODEL 2
REMARK VINA RESULT:    -7.179      1.495      2.321
REMARK INTER + INTRA:         -10.055
REMARK INTER:                  -8.948
REMARK INTRA:                  -1.107
REMARK UNBOUND:                -0.568
REMARK  Name = ligantes_geracao2\Derivado_006.pdb
REMARK  10 active torsions:
REMARK  status: ('A' for Active; 'I' for Inactive)
REMARK    1  A    between atoms: C1_1  and  C2_2
REMARK    2  A    between atoms: C5_6  and  C6_7
REMARK    3  A    between atoms: C9_10  and  C10_11
REMARK    4  A    between atoms: C11_12  and  C12_13
REMARK    5  A    between atoms: C12_13  and  C13_15
REMARK    6  A    between atoms: C13_15  and  C14_16
REMARK    7  A    between atoms: C14_16  and  C15_17
REMARK    8  A    between atoms: C14_16  and  C16_18
REMARK    9  A    between atoms: C17_19  and  C18_20
REMARK   10  A    between atoms: N2_21  and  O2_22
REMARK                            x       y       z     vdW  Elec       q    Type
REMARK                         _______ _______ _______ _____ _____    ______ ____
ROOT
ATOM      1  C6  UNL     1       0.363  60.361  71.610  0.00  0.00    +0.000 C 
ATOM      2  C7  UNL     1      -0.982  60.496  72.343  0.00  0.00    +0.000 C 
ATOM      3  C8  UNL     1      -1.091  59.161  73.069  0.00  0.00    +0.000 C 
ATOM      4  C9  UNL     1       0.331  58.877  73.574  0.00  0.00    +0.000 C 
ATOM      5  C10 UNL     1       0.658  57.389  73.537  0.00  0.00    +0.000 C 
ATOM      6  C11 UNL     1       1.277  59.712  72.673  0.00  0.00    +0.000 C 
ENDROOT
BRANCH   1  12
ATOM      7  C1  UNL     1       3.452  62.727  68.232  0.00  0.00    +0.000 C 
ATOM      8  C2  UNL     1       2.380  62.691  69.280  0.00  0.00    +0.000 C 
ATOM      9  C3  UNL     1       1.794  63.888  69.670  0.00  0.00    +0.000 C 
ATOM     10  N1  UNL     1       0.843  63.995  70.615  0.00  0.00    +0.000 NA
ATOM     11  C4  UNL     1       0.432  62.855  71.206  0.00  0.00    +0.000 C 
ATOM     12  C5  UNL     1       0.911  61.582  70.902  0.00  0.00    +0.000 C 
ATOM     13  C17 UNL     1       1.914  61.517  69.905  0.00  0.00    +0.000 C 
BRANCH  13  14
ATOM     14  C18 UNL     1       2.481  60.194  69.540  0.00  0.00    +0.000 C 
ATOM     15  N2  UNL     1       3.638  59.777  69.947  0.00  0.00    +0.000 NA
BRANCH  15  16
ATOM     16  O2  UNL     1       3.874  58.504  69.416  0.00  0.00    +0.000 OA
ATOM     17  H   UNL     1       4.560  58.378  68.788  0.00  0.00    +0.000 HD
ENDBRANCH  15  16
ENDBRANCH  13  14
ENDBRANCH   1  12
BRANCH   6  18
ATOM     18  C12 UNL     1       2.031  60.745  73.514  0.00  0.00    +0.000 C 
ATOM     19  O1  UNL     1       3.085  61.244  73.122  0.00  0.00    +0.000 OA
BRANCH  18  20
ATOM     20  C13 UNL     1       1.390  61.119  74.845  0.00  0.00    +0.000 C 
BRANCH  20  21
ATOM     21  C14 UNL     1       0.424  62.310  74.764  0.00  0.00    +0.000 C 
ATOM     22  C15 UNL     1      -0.727  62.116  75.752  0.00  0.00    +0.000 C 
ATOM     23  C16 UNL     1       1.136  63.633  75.057  0.00  0.00    +0.000 C 
ENDBRANCH  20  21
ENDBRANCH  18  20
ENDBRANCH   6  18
TORSDOF 6
ENDMDL
MODEL 3
REMARK VINA RESULT:    -6.866      2.112      3.413
REMARK INTER + INTRA:          -9.641
REMARK INTER:                  -8.741
REMARK INTRA:                  -0.900
REMARK UNBOUND:                -0.568
REMARK  Name = ligantes_geracao2\Derivado_006.pdb
REMARK  10 active torsions:
REMARK  status: ('A' for Active; 'I' for Inactive)
REMARK    1  A    between atoms: C1_1  and  C2_2
REMARK    2  A    between atoms: C5_6  and  C6_7
REMARK    3  A    between atoms: C9_10  and  C10_11
REMARK    4  A    between atoms: C11_12  and  C12_13
REMARK    5  A    between atoms: C12_13  and  C13_15
REMARK    6  A    between atoms: C13_15  and  C14_16
REMARK    7  A    between atoms: C14_16  and  C15_17
REMARK    8  A    between atoms: C14_16  and  C16_18
REMARK    9  A    between atoms: C17_19  and  C18_20
REMARK   10  A    between atoms: N2_21  and  O2_22
REMARK                            x       y       z     vdW  Elec       q    Type
REMARK                         _______ _______ _______ _____ _____    ______ ____
ROOT
ATOM      1  C6  UNL     1       1.356  61.263  73.004  0.00  0.00    +0.000 C 
ATOM      2  C7  UNL     1       1.383  60.917  74.502  0.00  0.00    +0.000 C 
ATOM      3  C8  UNL     1      -0.096  60.741  74.821  0.00  0.00    +0.000 C 
ATOM      4  C9  UNL     1      -0.669  59.999  73.605  0.00  0.00    +0.000 C 
ATOM      5  C10 UNL     1      -2.091  60.446  73.288  0.00  0.00    +0.000 C 
ATOM      6  C11 UNL     1       0.311  60.276  72.436  0.00  0.00    +0.000 C 
ENDROOT
BRANCH   1  12
ATOM      7  C1  UNL     1       4.451  62.991  69.264  0.00  0.00    +0.000 C 
ATOM      8  C2  UNL     1       4.142  62.185  70.491  0.00  0.00    +0.000 C 
ATOM      9  C3  UNL     1       5.153  61.417  71.051  0.00  0.00    +0.000 C 
ATOM     10  N1  UNL     1       4.999  60.632  72.133  0.00  0.00    +0.000 NA
ATOM     11  C4  UNL     1       3.780  60.608  72.708  0.00  0.00    +0.000 C 
ATOM     12  C5  UNL     1       2.678  61.343  72.271  0.00  0.00    +0.000 C 
ATOM     13  C17 UNL     1       2.884  62.151  71.127  0.00  0.00    +0.000 C 
BRANCH  13  14
ATOM     14  C18 UNL     1       1.751  62.951  70.597  0.00  0.00    +0.000 C 
ATOM     15  N2  UNL     1       0.939  62.519  69.685  0.00  0.00    +0.000 NA
BRANCH  15  16
ATOM     16  O2  UNL     1      -0.002  63.517  69.405  0.00  0.00    +0.000 OA
ATOM     17  H   UNL     1       0.232  64.242  68.858  0.00  0.00    +0.000 HD
ENDBRANCH  15  16
ENDBRANCH  13  14
ENDBRANCH   1  12
BRANCH   6  18
ATOM     18  C12 UNL     1       0.937  58.966  71.951  0.00  0.00    +0.000 C 
ATOM     19  O1  UNL     1       1.670  58.935  70.963  0.00  0.00    +0.000 OA
BRANCH  18  20
ATOM     20  C13 UNL     1       0.609  57.725  72.770  0.00  0.00    +0.000 C 
BRANCH  20  21
ATOM     21  C14 UNL     1       1.840  56.914  73.202  0.00  0.00    +0.000 C 
ATOM     22  C15 UNL     1       2.505  57.580  74.408  0.00  0.00    +0.000 C 
ATOM     23  C16 UNL     1       1.469  55.471  73.552  0.00  0.00    +0.000 C 
ENDBRANCH  20  21
ENDBRANCH  18  20
ENDBRANCH   6  18
TORSDOF 6
ENDMDL
MODEL 4
REMARK VINA RESULT:    -6.678      1.636      2.335
REMARK INTER + INTRA:          -9.392
REMARK INTER:                  -8.442
REMARK INTRA:                  -0.950
REMARK UNBOUND:                -0.568
REMARK  Name = ligantes_geracao2\Derivado_006.pdb
REMARK  10 active torsions:
REMARK  status: ('A' for Active; 'I' for Inactive)
REMARK    1  A    between atoms: C1_1  and  C2_2
REMARK    2  A    between atoms: C5_6  and  C6_7
REMARK    3  A    between atoms: C9_10  and  C10_11
REMARK    4  A    between atoms: C11_12  and  C12_13
REMARK    5  A    between atoms: C12_13  and  C13_15
REMARK    6  A    between atoms: C13_15  and  C14_16
REMARK    7  A    between atoms: C14_16  and  C15_17
REMARK    8  A    between atoms: C14_16  and  C16_18
REMARK    9  A    between atoms: C17_19  and  C18_20
REMARK   10  A    between atoms: N2_21  and  O2_22
REMARK                            x       y       z     vdW  Elec       q    Type
REMARK                         _______ _______ _______ _____ _____    ______ ____
ROOT
ATOM      1  C6  UNL     1       0.651  59.428  72.004  0.00  0.00    +0.000 C 
ATOM      2  C7  UNL     1      -0.597  59.185  72.867  0.00  0.00    +0.000 C 
ATOM      3  C8  UNL     1      -0.451  57.716  73.244  0.00  0.00    +0.000 C 
ATOM      4  C9  UNL     1       1.048  57.538  73.530  0.00  0.00    +0.000 C 
ATOM      5  C10 UNL     1       1.547  56.166  73.093  0.00  0.00    +0.000 C 
ATOM      6  C11 UNL     1       1.764  58.692  72.783  0.00  0.00    +0.000 C 
ENDROOT
BRANCH   1  12
ATOM      7  C1  UNL     1       2.890  62.952  68.984  0.00  0.00    +0.000 C 
ATOM      8  C2  UNL     1       2.015  62.513  70.121  0.00  0.00    +0.000 C 
ATOM      9  C3  UNL     1       1.390  63.486  70.888  0.00  0.00    +0.000 C 
ATOM     10  N1  UNL     1       0.603  63.226  71.948  0.00  0.00    +0.000 NA
ATOM     11  C4  UNL     1       0.409  61.930  72.268  0.00  0.00    +0.000 C 
ATOM     12  C5  UNL     1       0.952  60.849  71.576  0.00  0.00    +0.000 C 
ATOM     13  C17 UNL     1       1.777  61.169  70.471  0.00  0.00    +0.000 C 
BRANCH  13  14
ATOM     14  C18 UNL     1       2.401  60.067  69.695  0.00  0.00    +0.000 C 
ATOM     15  N2  UNL     1       3.597  59.623  69.923  0.00  0.00    +0.000 NA
BRANCH  15  16
ATOM     16  O2  UNL     1       3.881  58.598  69.013  0.00  0.00    +0.000 OA
ATOM     17  H   UNL     1       3.800  58.752  68.092  0.00  0.00    +0.000 HD
ENDBRANCH  15  16
ENDBRANCH  13  14
ENDBRANCH   1  12
BRANCH   6  18
ATOM     18  C12 UNL     1       2.485  59.600  73.783  0.00  0.00    +0.000 C 
ATOM     19  O1  UNL     1       3.495  60.227  73.465  0.00  0.00    +0.000 OA
BRANCH  18  20
ATOM     20  C13 UNL     1       1.869  59.684  75.174  0.00  0.00    +0.000 C 
BRANCH  20  21
ATOM     21  C14 UNL     1       2.777  59.156  76.295  0.00  0.00    +0.000 C 
ATOM     22  C15 UNL     1       2.829  60.167  77.442  0.00  0.00    +0.000 C 
ATOM     23  C16 UNL     1       2.291  57.804  76.822  0.00  0.00    +0.000 C 
ENDBRANCH  20  21
ENDBRANCH  18  20
ENDBRANCH   6  18
TORSDOF 6
ENDMDL
MODEL 5
REMARK VINA RESULT:    -6.598      1.514      3.024
REMARK INTER + INTRA:          -9.287
REMARK INTER:                 -10.350
REMARK INTRA:                   1.063
REMARK UNBOUND:                -0.568
REMARK  Name = ligantes_geracao2\Derivado_006.pdb
REMARK  10 active torsions:
REMARK  status: ('A' for Active; 'I' for Inactive)
REMARK    1  A    between atoms: C1_1  and  C2_2
REMARK    2  A    between atoms: C5_6  and  C6_7
REMARK    3  A    between atoms: C9_10  and  C10_11
REMARK    4  A    between atoms: C11_12  and  C12_13
REMARK    5  A    between atoms: C12_13  and  C13_15
REMARK    6  A    between atoms: C13_15  and  C14_16
REMARK    7  A    between atoms: C14_16  and  C15_17
REMARK    8  A    between atoms: C14_16  and  C16_18
REMARK    9  A    between atoms: C17_19  and  C18_20
REMARK   10  A    between atoms: N2_21  and  O2_22
REMARK                            x       y       z     vdW  Elec       q    Type
REMARK                         _______ _______ _______ _____ _____    ______ ____
ROOT
ATOM      1  C6  UNL     1       0.528  61.404  70.802  0.00  0.00    +0.000 C 
ATOM      2  C7  UNL     1      -0.529  62.287  71.483  0.00  0.00    +0.000 C 
ATOM      3  C8  UNL     1      -1.298  61.281  72.329  0.00  0.00    +0.000 C 
ATOM      4  C9  UNL     1      -0.219  60.347  72.896  0.00  0.00    +0.000 C 
ATOM      5  C10 UNL     1      -0.715  58.910  73.009  0.00  0.00    +0.000 C 
ATOM      6  C11 UNL     1       0.999  60.477  71.946  0.00  0.00    +0.000 C 
ENDROOT
BRANCH   1  12
ATOM      7  C1  UNL     1       3.100  65.541  69.123  0.00  0.00    +0.000 C 
ATOM      8  C2  UNL     1       2.834  64.067  69.217  0.00  0.00    +0.000 C 
ATOM      9  C3  UNL     1       3.653  63.200  68.508  0.00  0.00    +0.000 C 
ATOM     10  N1  UNL     1       3.505  61.863  68.487  0.00  0.00    +0.000 NA
ATOM     11  C4  UNL     1       2.498  61.344  69.219  0.00  0.00    +0.000 C 
ATOM     12  C5  UNL     1       1.613  62.088  69.997  0.00  0.00    +0.000 C 
ATOM     13  C17 UNL     1       1.802  63.491  69.985  0.00  0.00    +0.000 C 
BRANCH  13  14
ATOM     14  C18 UNL     1       0.887  64.348  70.781  0.00  0.00    +0.000 C 
ATOM     15  N2  UNL     1       0.238  65.352  70.283  0.00  0.00    +0.000 NA
BRANCH  15  16
ATOM     16  O2  UNL     1      -0.521  65.950  71.296  0.00  0.00    +0.000 OA
ATOM     17  H   UNL     1      -0.193  65.976  72.174  0.00  0.00    +0.000 HD
ENDBRANCH  15  16
ENDBRANCH  13  14
ENDBRANCH   1  12
BRANCH   6  18
ATOM     18  C12 UNL     1       2.203  61.041  72.706  0.00  0.00    +0.000 C 
ATOM     19  O1  UNL     1       2.336  62.251  72.887  0.00  0.00    +0.000 OA
BRANCH  18  20
ATOM     20  C13 UNL     1       3.203  60.017  73.227  0.00  0.00    +0.000 C 
BRANCH  20  21
ATOM     21  C14 UNL     1       4.359  59.720  72.260  0.00  0.00    +0.000 C 
ATOM     22  C15 UNL     1       3.854  58.871  71.092  0.00  0.00    +0.000 C 
ATOM     23  C16 UNL     1       4.990  61.007  71.725  0.00  0.00    +0.000 C 
ENDBRANCH  20  21
ENDBRANCH  18  20
ENDBRANCH   6  18
TORSDOF 6
ENDMDL
MODEL 6
REMARK VINA RESULT:    -6.535      2.749      5.084
REMARK INTER + INTRA:          -9.203
REMARK INTER:                  -8.265
REMARK INTRA:                  -0.939
REMARK UNBOUND:                -0.568
REMARK  Name = ligantes_geracao2\Derivado_006.pdb
REMARK  10 active torsions:
REMARK  status: ('A' for Active; 'I' for Inactive)
REMARK    1  A    between atoms: C1_1  and  C2_2
REMARK    2  A    between atoms: C5_6  and  C6_7
REMARK    3  A    between atoms: C9_10  and  C10_11
REMARK    4  A    between atoms: C11_12  and  C12_13
REMARK    5  A    between atoms: C12_13  and  C13_15
REMARK    6  A    between atoms: C13_15  and  C14_16
REMARK    7  A    between atoms: C14_16  and  C15_17
REMARK    8  A    between atoms: C14_16  and  C16_18
REMARK    9  A    between atoms: C17_19  and  C18_20
REMARK   10  A    between atoms: N2_21  and  O2_22
REMARK                            x       y       z     vdW  Elec       q    Type
REMARK                         _______ _______ _______ _____ _____    ______ ____
ROOT
ATOM      1  C6  UNL     1       1.729  59.377  71.539  0.00  0.00    +0.000 C 
ATOM      2  C7  UNL     1       2.328  58.125  70.876  0.00  0.00    +0.000 C 
ATOM      3  C8  UNL     1       3.638  58.654  70.308  0.00  0.00    +0.000 C 
ATOM      4  C9  UNL     1       4.175  59.602  71.391  0.00  0.00    +0.000 C 
ATOM      5  C10 UNL     1       4.897  60.800  70.786  0.00  0.00    +0.000 C 
ATOM      6  C11 UNL     1       2.947  60.019  72.239  0.00  0.00    +0.000 C 
ENDROOT
BRANCH   1  12
ATOM      7  C1  UNL     1      -2.527  61.115  73.867  0.00  0.00    +0.000 C 
ATOM      8  C2  UNL     1      -1.550  60.048  73.469  0.00  0.00    +0.000 C 
ATOM      9  C3  UNL     1      -1.782  58.746  73.890  0.00  0.00    +0.000 C 
ATOM     10  N1  UNL     1      -0.972  57.706  73.624  0.00  0.00    +0.000 NA
ATOM     11  C4  UNL     1       0.130  57.957  72.887  0.00  0.00    +0.000 C 
ATOM     12  C5  UNL     1       0.479  59.207  72.377  0.00  0.00    +0.000 C 
ATOM     13  C17 UNL     1      -0.400  60.273  72.686  0.00  0.00    +0.000 C 
BRANCH  13  14
ATOM     14  C18 UNL     1      -0.083  61.635  72.187  0.00  0.00    +0.000 C 
ATOM     15  N2  UNL     1      -0.589  62.133  71.104  0.00  0.00    +0.000 NA
BRANCH  15  16
ATOM     16  O2  UNL     1      -0.078  63.422  70.915  0.00  0.00    +0.000 OA
ATOM     17  H   UNL     1       0.200  63.696  70.062  0.00  0.00    +0.000 HD
ENDBRANCH  15  16
ENDBRANCH  13  14
ENDBRANCH   1  12
BRANCH   6  18
ATOM     18  C12 UNL     1       3.117  59.542  73.684  0.00  0.00    +0.000 C 
ATOM     19  O1  UNL     1       2.505  60.073  74.610  0.00  0.00    +0.000 OA
BRANCH  18  20
ATOM     20  C13 UNL     1       4.072  58.372  73.893  0.00  0.00    +0.000 C 
BRANCH  20  21
ATOM     21  C14 UNL     1       3.820  57.581  75.185  0.00  0.00    +0.000 C 
ATOM     22  C15 UNL     1       2.743  56.521  74.945  0.00  0.00    +0.000 C 
ATOM     23  C16 UNL     1       5.098  56.908  75.691  0.00  0.00    +0.000 C 
ENDBRANCH  20  21
ENDBRANCH  18  20
ENDBRANCH   6  18
TORSDOF 6
ENDMDL
MODEL 7
REMARK VINA RESULT:    -6.167      3.025      5.963
REMARK INTER + INTRA:          -8.718
REMARK INTER:                  -8.177
REMARK INTRA:                  -0.540
REMARK UNBOUND:                -0.568
REMARK  Name = ligantes_geracao2\Derivado_006.pdb
REMARK  10 active torsions:
REMARK  status: ('A' for Active; 'I' for Inactive)
REMARK    1  A    between atoms: C1_1  and  C2_2
REMARK    2  A    between atoms: C5_6  and  C6_7
REMARK    3  A    between atoms: C9_10  and  C10_11
REMARK    4  A    between atoms: C11_12  and  C12_13
REMARK    5  A    between atoms: C12_13  and  C13_15
REMARK    6  A    between atoms: C13_15  and  C14_16
REMARK    7  A    between atoms: C14_16  and  C15_17
REMARK    8  A    between atoms: C14_16  and  C16_18
REMARK    9  A    between atoms: C17_19  and  C18_20
REMARK   10  A    between atoms: N2_21  and  O2_22
REMARK                            x       y       z     vdW  Elec       q    Type
REMARK                         _______ _______ _______ _____ _____    ______ ____
ROOT
ATOM      1  C6  UNL     1       2.880  59.294  72.698  0.00  0.00    +0.000 C 
ATOM      2  C7  UNL     1       4.111  60.210  72.788  0.00  0.00    +0.000 C 
ATOM      3  C8  UNL     1       4.659  60.159  71.368  0.00  0.00    +0.000 C 
ATOM      4  C9  UNL     1       3.413  60.196  70.470  0.00  0.00    +0.000 C 
ATOM      5  C10 UNL     1       3.594  59.349  69.216  0.00  0.00    +0.000 C 
ATOM      6  C11 UNL     1       2.238  59.703  71.352  0.00  0.00    +0.000 C 
ENDROOT
BRANCH   1  12
ATOM      7  C1  UNL     1      -0.125  56.807  76.065  0.00  0.00    +0.000 C 
ATOM      8  C2  UNL     1       0.538  58.027  75.497  0.00  0.00    +0.000 C 
ATOM      9  C3  UNL     1       0.309  59.251  76.110  0.00  0.00    +0.000 C 
ATOM     10  N1  UNL     1       0.822  60.421  75.686  0.00  0.00    +0.000 NA
ATOM     11  C4  UNL     1       1.618  60.385  74.598  0.00  0.00    +0.000 C 
ATOM     12  C5  UNL     1       1.955  59.229  73.895  0.00  0.00    +0.000 C 
ATOM     13  C17 UNL     1       1.389  58.022  74.374  0.00  0.00    +0.000 C 
BRANCH  13  14
ATOM     14  C18 UNL     1       1.693  56.753  73.665  0.00  0.00    +0.000 C 
ATOM     15  N2  UNL     1       2.490  55.847  74.136  0.00  0.00    +0.000 NA
BRANCH  15  16
ATOM     16  O2  UNL     1       2.566  54.790  73.222  0.00  0.00    +0.000 OA
ATOM     17  H   UNL     1       3.332  54.683  72.691  0.00  0.00    +0.000 HD
ENDBRANCH  15  16
ENDBRANCH  13  14
ENDBRANCH   1  12
BRANCH   6  18
ATOM     18  C12 UNL     1       1.193  60.811  71.508  0.00  0.00    +0.000 C 
ATOM     19  O1  UNL     1      -0.007  60.552  71.586  0.00  0.00    +0.000 OA
BRANCH  18  20
ATOM     20  C13 UNL     1       1.733  62.234  71.573  0.00  0.00    +0.000 C 
BRANCH  20  21
ATOM     21  C14 UNL     1       1.429  63.078  70.326  0.00  0.00    +0.000 C 
ATOM     22  C15 UNL     1       0.347  64.111  70.648  0.00  0.00    +0.000 C 
ATOM     23  C16 UNL     1       2.681  63.789  69.809  0.00  0.00    +0.000 C 
ENDBRANCH  20  21
ENDBRANCH  18  20
ENDBRANCH   6  18
TORSDOF 6
ENDMDL
MODEL 8
REMARK VINA RESULT:    -6.078     20.019     21.961
REMARK INTER + INTRA:          -8.600
REMARK INTER:                  -7.736
REMARK INTRA:                  -0.864
REMARK UNBOUND:                -0.568
REMARK  Name = ligantes_geracao2\Derivado_006.pdb
REMARK  10 active torsions:
REMARK  status: ('A' for Active; 'I' for Inactive)
REMARK    1  A    between atoms: C1_1  and  C2_2
REMARK    2  A    between atoms: C5_6  and  C6_7
REMARK    3  A    between atoms: C9_10  and  C10_11
REMARK    4  A    between atoms: C11_12  and  C12_13
REMARK    5  A    between atoms: C12_13  and  C13_15
REMARK    6  A    between atoms: C13_15  and  C14_16
REMARK    7  A    between atoms: C14_16  and  C15_17
REMARK    8  A    between atoms: C14_16  and  C16_18
REMARK    9  A    between atoms: C17_19  and  C18_20
REMARK   10  A    between atoms: N2_21  and  O2_22
REMARK                            x       y       z     vdW  Elec       q    Type
REMARK                         _______ _______ _______ _____ _____    ______ ____
ROOT
ATOM      1  C6  UNL     1       3.764  81.934  62.892  0.00  0.00    +0.000 C 
ATOM      2  C7  UNL     1       4.840  81.787  61.805  0.00  0.00    +0.000 C 
ATOM      3  C8  UNL     1       5.880  82.812  62.236  0.00  0.00    +0.000 C 
ATOM      4  C9  UNL     1       5.939  82.684  63.766  0.00  0.00    +0.000 C 
ATOM      5  C10 UNL     1       6.182  84.031  64.438  0.00  0.00    +0.000 C 
ATOM      6  C11 UNL     1       4.592  82.046  64.192  0.00  0.00    +0.000 C 
ENDROOT
BRANCH   1  12
ATOM      7  C1  UNL     1      -0.982  80.375  64.160  0.00  0.00    +0.000 C 
ATOM      8  C2  UNL     1       0.358  80.216  63.503  0.00  0.00    +0.000 C 
ATOM      9  C3  UNL     1       0.621  79.040  62.812  0.00  0.00    +0.000 C 
ATOM     10  N1  UNL     1       1.787  78.763  62.203  0.00  0.00    +0.000 NA
ATOM     11  C4  UNL     1       2.753  79.703  62.265  0.00  0.00    +0.000 C 
ATOM     12  C5  UNL     1       2.624  80.937  62.902  0.00  0.00    +0.000 C 
ATOM     13  C17 UNL     1       1.381  81.184  63.533  0.00  0.00    +0.000 C 
BRANCH  13  14
ATOM     14  C18 UNL     1       1.178  82.472  64.243  0.00  0.00    +0.000 C 
ATOM     15  N2  UNL     1       1.360  82.621  65.517  0.00  0.00    +0.000 NA
BRANCH  15  16
ATOM     16  O2  UNL     1       1.072  83.946  65.865  0.00  0.00    +0.000 OA
ATOM     17  H   UNL     1       1.665  84.427  66.409  0.00  0.00    +0.000 HD
ENDBRANCH  15  16
ENDBRANCH  13  14
ENDBRANCH   1  12
BRANCH   6  18
ATOM     18  C12 UNL     1       4.838  80.689  64.856  0.00  0.00    +0.000 C 
ATOM     19  O1  UNL     1       3.992  80.170  65.584  0.00  0.00    +0.000 OA
BRANCH  18  20
ATOM     20  C13 UNL     1       6.175  80.027  64.548  0.00  0.00    +0.000 C 
BRANCH  20  21
ATOM     21  C14 UNL     1       7.074  79.827  65.777  0.00  0.00    +0.000 C 
ATOM     22  C15 UNL     1       8.545  79.880  65.360  0.00  0.00    +0.000 C 
ATOM     23  C16 UNL     1       6.805  80.885  66.849  0.00  0.00    +0.000 C 
ENDBRANCH  20  21
ENDBRANCH  18  20
ENDBRANCH   6  18
TORSDOF 6
ENDMDL
MODEL 9
REMARK VINA RESULT:    -6.072      1.654      3.612
REMARK INTER + INTRA:          -8.592
REMARK INTER:                  -8.489
REMARK INTRA:                  -0.103
REMARK UNBOUND:                -0.568
REMARK  Name = ligantes_geracao2\Derivado_006.pdb
REMARK  10 active torsions:
REMARK  status: ('A' for Active; 'I' for Inactive)
REMARK    1  A    between atoms: C1_1  and  C2_2
REMARK    2  A    between atoms: C5_6  and  C6_7
REMARK    3  A    between atoms: C9_10  and  C10_11
REMARK    4  A    between atoms: C11_12  and  C12_13
REMARK    5  A    between atoms: C12_13  and  C13_15
REMARK    6  A    between atoms: C13_15  and  C14_16
REMARK    7  A    between atoms: C14_16  and  C15_17
REMARK    8  A    between atoms: C14_16  and  C16_18
REMARK    9  A    between atoms: C17_19  and  C18_20
REMARK   10  A    between atoms: N2_21  and  O2_22
REMARK                            x       y       z     vdW  Elec       q    Type
REMARK                         _______ _______ _______ _____ _____    ______ ____
ROOT
ATOM      1  C6  UNL     1       2.698  60.344  73.500  0.00  0.00    +0.000 C 
ATOM      2  C7  UNL     1       3.950  59.506  73.194  0.00  0.00    +0.000 C 
ATOM      3  C8  UNL     1       3.974  58.521  74.355  0.00  0.00    +0.000 C 
ATOM      4  C9  UNL     1       2.502  58.133  74.563  0.00  0.00    +0.000 C 
ATOM      5  C10 UNL     1       2.179  57.908  76.035  0.00  0.00    +0.000 C 
ATOM      6  C11 UNL     1       1.667  59.282  73.944  0.00  0.00    +0.000 C 
ENDROOT
BRANCH   1  12
ATOM      7  C1  UNL     1       2.350  62.130  68.679  0.00  0.00    +0.000 C 
ATOM      8  C2  UNL     1       2.071  62.168  70.152  0.00  0.00    +0.000 C 
ATOM      9  C3  UNL     1       1.305  63.211  70.654  0.00  0.00    +0.000 C 
ATOM     10  N1  UNL     1       1.005  63.374  71.955  0.00  0.00    +0.000 NA
ATOM     11  C4  UNL     1       1.476  62.449  72.817  0.00  0.00    +0.000 C 
ATOM     12  C5  UNL     1       2.238  61.339  72.455  0.00  0.00    +0.000 C 
ATOM     13  C17 UNL     1       2.533  61.210  71.076  0.00  0.00    +0.000 C 
BRANCH  13  14
ATOM     14  C18 UNL     1       3.352  60.058  70.620  0.00  0.00    +0.000 C 
ATOM     15  N2  UNL     1       2.926  59.168  69.781  0.00  0.00    +0.000 NA
BRANCH  15  16
ATOM     16  O2  UNL     1       3.934  58.219  69.574  0.00  0.00    +0.000 OA
ATOM     17  H   UNL     1       4.641  58.145  70.186  0.00  0.00    +0.000 HD
ENDBRANCH  15  16
ENDBRANCH  13  14
ENDBRANCH   1  12
BRANCH   6  18
ATOM     18  C12 UNL     1       0.824  58.755  72.780  0.00  0.00    +0.000 C 
ATOM     19  O1  UNL     1       1.190  57.791  72.109  0.00  0.00    +0.000 OA
BRANCH  18  20
ATOM     20  C13 UNL     1      -0.489  59.485  72.521  0.00  0.00    +0.000 C 
BRANCH  20  21
ATOM     21  C14 UNL     1      -1.254  59.871  73.795  0.00  0.00    +0.000 C 
ATOM     22  C15 UNL     1      -2.291  60.949  73.474  0.00  0.00    +0.000 C 
ATOM     23  C16 UNL     1      -1.948  58.661  74.424  0.00  0.00    +0.000 C 
ENDBRANCH  20  21
ENDBRANCH  18  20
ENDBRANCH   6  18
TORSDOF 6
ENDMDL
