MODEL 1
REMARK VINA RESULT:    -6.151      0.000      0.000
REMARK INTER + INTRA:          -9.230
REMARK INTER:                  -8.129
REMARK INTRA:                  -1.101
REMARK UNBOUND:                -1.101
REMARK  Name = ligantes_geracao2\Derivado_004.pdb
REMARK  10 active torsions:
REMARK  status: ('A' for Active; 'I' for Inactive)
REMARK    1  A    between atoms: C1_1  and  C2_2
REMARK    2  A    between atoms: C5_6  and  C6_7
REMARK    3  A    between atoms: N2_8  and  O1_9
REMARK    4  A    between atoms: C7_10  and  C8_11
REMARK    5  A    between atoms: C11_14  and  C12_15
REMARK    6  A    between atoms: C13_16  and  C14_17
REMARK    7  A    between atoms: C14_17  and  C15_19
REMARK    8  A    between atoms: C15_19  and  C16_20
REMARK    9  A    between atoms: C16_20  and  C17_21
REMARK   10  A    between atoms: C16_20  and  C18_22
REMARK                            x       y       z     vdW  Elec       q    Type
REMARK                         _______ _______ _______ _____ _____    ______ ____
ROOT
ATOM      1  C8  UNL     1      16.563  -8.070   1.995  0.00  0.00    +0.000 C 
ATOM      2  C9  UNL     1      16.245  -8.821   3.301  0.00  0.00    +0.000 C 
ATOM      3  C10 UNL     1      15.562 -10.105   2.848  0.00  0.00    +0.000 C 
ATOM      4  C11 UNL     1      14.711  -9.655   1.663  0.00  0.00    +0.000 C 
ATOM      5  C12 UNL     1      14.159 -10.812   0.843  0.00  0.00    +0.000 C 
ATOM      6  C13 UNL     1      15.606  -8.647   0.913  0.00  0.00    +0.000 C 
ENDROOT
BRANCH   1  13
ATOM      7  C1  UNL     1      14.351  -6.360   3.382  0.00  0.00    +0.000 C 
ATOM      8  C2  UNL     1      15.583  -5.790   2.739  0.00  0.00    +0.000 C 
ATOM      9  N1  UNL     1      15.602  -4.430   2.780  0.00  0.00    +0.000 NA
ATOM     10  C3  UNL     1      16.658  -3.777   2.268  0.00  0.00    +0.000 C 
ATOM     11  C4  UNL     1      17.739  -4.420   1.719  0.00  0.00    +0.000 C 
ATOM     12  C5  UNL     1      17.724  -5.816   1.675  0.00  0.00    +0.000 C 
ATOM     13  C7  UNL     1      16.610  -6.555   2.149  0.00  0.00    +0.000 C 
BRANCH  12  14
ATOM     14  C6  UNL     1      18.954  -6.459   1.148  0.00  0.00    +0.000 C 
ATOM     15  N2  UNL     1      20.101  -6.334   1.742  0.00  0.00    +0.000 NA
BRANCH  15  16
ATOM     16  O1  UNL     1      21.062  -7.058   1.027  0.00  0.00    +0.000 OA
ATOM     17  H   UNL     1      21.852  -7.331   1.449  0.00  0.00    +0.000 HD
ENDBRANCH  15  16
ENDBRANCH  12  14
ENDBRANCH   1  13
BRANCH   6  18
ATOM     18  C14 UNL     1      16.428  -9.292  -0.208  0.00  0.00    +0.000 C 
ATOM     19  O2  UNL     1      17.222 -10.205   0.021  0.00  0.00    +0.000 OA
BRANCH  18  20
ATOM     20  C15 UNL     1      16.237  -8.707  -1.601  0.00  0.00    +0.000 C 
BRANCH  20  21
ATOM     21  C16 UNL     1      17.332  -7.712  -2.012  0.00  0.00    +0.000 C 
ATOM     22  C17 UNL     1      17.834  -7.988  -3.431  0.00  0.00    +0.000 C 
ATOM     23  C18 UNL     1      16.799  -6.281  -1.922  0.00  0.00    +0.000 C 
ENDBRANCH  20  21
ENDBRANCH  18  20
ENDBRANCH   6  18
TORSDOF 6
ENDMDL
MODEL 2
REMARK VINA RESULT:    -6.028      2.628      4.117
REMARK INTER + INTRA:          -9.067
REMARK INTER:                  -7.787
REMARK INTRA:                  -1.280
REMARK UNBOUND:                -1.101
REMARK  Name = ligantes_geracao2\Derivado_004.pdb
REMARK  10 active torsions:
REMARK  status: ('A' for Active; 'I' for Inactive)
REMARK    1  A    between atoms: C1_1  and  C2_2
REMARK    2  A    between atoms: C5_6  and  C6_7
REMARK    3  A    between atoms: N2_8  and  O1_9
REMARK    4  A    between atoms: C7_10  and  C8_11
REMARK    5  A    between atoms: C11_14  and  C12_15
REMARK    6  A    between atoms: C13_16  and  C14_17
REMARK    7  A    between atoms: C14_17  and  C15_19
REMARK    8  A    between atoms: C15_19  and  C16_20
REMARK    9  A    between atoms: C16_20  and  C17_21
REMARK   10  A    between atoms: C16_20  and  C18_22
REMARK                            x       y       z     vdW  Elec       q    Type
REMARK                         _______ _______ _______ _____ _____    ______ ____
ROOT
ATOM      1  C8  UNL     1      17.693  -7.726   1.648  0.00  0.00    +0.000 C 
ATOM      2  C9  UNL     1      17.270  -8.742   0.571  0.00  0.00    +0.000 C 
ATOM      3  C10 UNL     1      15.815  -8.403   0.275  0.00  0.00    +0.000 C 
ATOM      4  C11 UNL     1      15.252  -8.031   1.645  0.00  0.00    +0.000 C 
ATOM      5  C12 UNL     1      13.887  -7.362   1.575  0.00  0.00    +0.000 C 
ATOM      6  C13 UNL     1      16.382  -7.219   2.312  0.00  0.00    +0.000 C 
ENDROOT
BRANCH   1  13
ATOM      7  C1  UNL     1      17.626 -10.451   3.168  0.00  0.00    +0.000 C 
ATOM      8  C2  UNL     1      18.732  -9.443   3.287  0.00  0.00    +0.000 C 
ATOM      9  N1  UNL     1      19.684  -9.826   4.181  0.00  0.00    +0.000 NA
ATOM     10  C3  UNL     1      20.753  -9.037   4.373  0.00  0.00    +0.000 C 
ATOM     11  C4  UNL     1      20.945  -7.860   3.693  0.00  0.00    +0.000 C 
ATOM     12  C5  UNL     1      19.971  -7.462   2.774  0.00  0.00    +0.000 C 
ATOM     13  C7  UNL     1      18.795  -8.229   2.572  0.00  0.00    +0.000 C 
BRANCH  12  14
ATOM     14  C6  UNL     1      20.273  -6.228   2.007  0.00  0.00    +0.000 C 
ATOM     15  N2  UNL     1      20.112  -5.046   2.518  0.00  0.00    +0.000 NA
BRANCH  15  16
ATOM     16  O1  UNL     1      20.489  -4.088   1.571  0.00  0.00    +0.000 OA
ATOM     17  H   UNL     1      21.137  -4.296   0.927  0.00  0.00    +0.000 HD
ENDBRANCH  15  16
ENDBRANCH  12  14
ENDBRANCH   1  13
BRANCH   6  18
ATOM     18  C14 UNL     1      16.245  -5.709   2.093  0.00  0.00    +0.000 C 
ATOM     19  O2  UNL     1      15.606  -5.002   2.873  0.00  0.00    +0.000 OA
BRANCH  18  20
ATOM     20  C15 UNL     1      16.903  -5.150   0.839  0.00  0.00    +0.000 C 
BRANCH  20  21
ATOM     21  C16 UNL     1      15.908  -4.586  -0.185  0.00  0.00    +0.000 C 
ATOM     22  C17 UNL     1      16.064  -3.072  -0.341  0.00  0.00    +0.000 C 
ATOM     23  C18 UNL     1      16.108  -5.268  -1.541  0.00  0.00    +0.000 C 
ENDBRANCH  20  21
ENDBRANCH  18  20
ENDBRANCH   6  18
TORSDOF 6
ENDMDL
MODEL 3
REMARK VINA RESULT:    -6.006     22.935     25.848
REMARK INTER + INTRA:          -9.038
REMARK INTER:                  -7.866
REMARK INTRA:                  -1.173
REMARK UNBOUND:                -1.101
REMARK  Name = ligantes_geracao2\Derivado_004.pdb
REMARK  10 active torsions:
REMARK  status: ('A' for Active; 'I' for Inactive)
REMARK    1  A    between atoms: C1_1  and  C2_2
REMARK    2  A    between atoms: C5_6  and  C6_7
REMARK    3  A    between atoms: N2_8  and  O1_9
REMARK    4  A    between atoms: C7_10  and  C8_11
REMARK    5  A    between atoms: C11_14  and  C12_15
REMARK    6  A    between atoms: C13_16  and  C14_17
REMARK    7  A    between atoms: C14_17  and  C15_19
REMARK    8  A    between atoms: C15_19  and  C16_20
REMARK    9  A    between atoms: C16_20  and  C17_21
REMARK   10  A    between atoms: C16_20  and  C18_22
REMARK                            x       y       z     vdW  Elec       q    Type
REMARK                         _______ _______ _______ _____ _____    ______ ____
ROOT
ATOM      1  C8  UNL     1       0.719   0.329  18.756  0.00  0.00    +0.000 C 
ATOM      2  C9  UNL     1      -0.386   0.836  17.813  0.00  0.00    +0.000 C 
ATOM      3  C10 UNL     1      -0.257   2.354  17.852  0.00  0.00    +0.000 C 
ATOM      4  C11 UNL     1       0.090   2.642  19.311  0.00  0.00    +0.000 C 
ATOM      5  C12 UNL     1       0.567   4.068  19.547  0.00  0.00    +0.000 C 
ATOM      6  C13 UNL     1       1.072   1.516  19.697  0.00  0.00    +0.000 C 
ENDROOT
BRANCH   1  13
ATOM      7  C1  UNL     1      -1.660  -0.177  20.711  0.00  0.00    +0.000 C 
ATOM      8  C2  UNL     1      -0.647  -1.215  20.326  0.00  0.00    +0.000 C 
ATOM      9  N1  UNL     1      -0.849  -2.396  20.971  0.00  0.00    +0.000 NA
ATOM     10  C3  UNL     1      -0.036  -3.432  20.706  0.00  0.00    +0.000 C 
ATOM     11  C4  UNL     1       0.986  -3.363  19.793  0.00  0.00    +0.000 C 
ATOM     12  C5  UNL     1       1.198  -2.153  19.128  0.00  0.00    +0.000 C 
ATOM     13  C7  UNL     1       0.406  -1.011  19.410  0.00  0.00    +0.000 C 
BRANCH  12  14
ATOM     14  C6  UNL     1       2.261  -2.163  18.092  0.00  0.00    +0.000 C 
ATOM     15  N2  UNL     1       2.884  -3.251  17.759  0.00  0.00    +0.000 NA
BRANCH  15  16
ATOM     16  O1  UNL     1       3.812  -2.952  16.755  0.00  0.00    +0.000 OA
ATOM     17  H   UNL     1       3.926  -2.067  16.471  0.00  0.00    +0.000 HD
ENDBRANCH  15  16
ENDBRANCH  12  14
ENDBRANCH   1  13
BRANCH   6  18
ATOM     18  C14 UNL     1       2.541   1.907  19.503  0.00  0.00    +0.000 C 
ATOM     19  O2  UNL     1       2.984   2.206  18.394  0.00  0.00    +0.000 OA
BRANCH  18  20
ATOM     20  C15 UNL     1       3.418   1.858  20.746  0.00  0.00    +0.000 C 
BRANCH  20  21
ATOM     21  C16 UNL     1       2.694   1.341  21.997  0.00  0.00    +0.000 C 
ATOM     22  C17 UNL     1       2.797  -0.182  22.113  0.00  0.00    +0.000 C 
ATOM     23  C18 UNL     1       3.281   1.994  23.250  0.00  0.00    +0.000 C 
ENDBRANCH  20  21
ENDBRANCH  18  20
ENDBRANCH   6  18
TORSDOF 6
ENDMDL
MODEL 4
REMARK VINA RESULT:    -5.997     22.616     25.775
REMARK INTER + INTRA:          -9.026
REMARK INTER:                  -7.870
REMARK INTRA:                  -1.156
REMARK UNBOUND:                -1.101
REMARK  Name = ligantes_geracao2\Derivado_004.pdb
REMARK  10 active torsions:
REMARK  status: ('A' for Active; 'I' for Inactive)
REMARK    1  A    between atoms: C1_1  and  C2_2
REMARK    2  A    between atoms: C5_6  and  C6_7
REMARK    3  A    between atoms: N2_8  and  O1_9
REMARK    4  A    between atoms: C7_10  and  C8_11
REMARK    5  A    between atoms: C11_14  and  C12_15
REMARK    6  A    between atoms: C13_16  and  C14_17
REMARK    7  A    between atoms: C14_17  and  C15_19
REMARK    8  A    between atoms: C15_19  and  C16_20
REMARK    9  A    between atoms: C16_20  and  C17_21
REMARK   10  A    between atoms: C16_20  and  C18_22
REMARK                            x       y       z     vdW  Elec       q    Type
REMARK                         _______ _______ _______ _____ _____    ______ ____
ROOT
ATOM      1  C8  UNL     1      -0.177  -1.060  17.577  0.00  0.00    +0.000 C 
ATOM      2  C9  UNL     1      -0.193  -0.848  16.053  0.00  0.00    +0.000 C 
ATOM      3  C10 UNL     1       1.002  -1.643  15.542  0.00  0.00    +0.000 C 
ATOM      4  C11 UNL     1       2.061  -1.423  16.621  0.00  0.00    +0.000 C 
ATOM      5  C12 UNL     1       3.253  -2.360  16.495  0.00  0.00    +0.000 C 
ATOM      6  C13 UNL     1       1.272  -1.488  17.946  0.00  0.00    +0.000 C 
ENDROOT
BRANCH   1  13
ATOM      7  C1  UNL     1       0.732   1.918  17.359  0.00  0.00    +0.000 C 
ATOM      8  C2  UNL     1      -0.337   1.426  18.291  0.00  0.00    +0.000 C 
ATOM      9  N1  UNL     1      -0.833   2.420  19.077  0.00  0.00    +0.000 NA
ATOM     10  C3  UNL     1      -1.819   2.136  19.944  0.00  0.00    +0.000 C 
ATOM     11  C4  UNL     1      -2.370   0.886  20.064  0.00  0.00    +0.000 C 
ATOM     12  C5  UNL     1      -1.865  -0.139  19.260  0.00  0.00    +0.000 C 
ATOM     13  C7  UNL     1      -0.787   0.092  18.367  0.00  0.00    +0.000 C 
BRANCH  12  14
ATOM     14  C6  UNL     1      -2.556  -1.448  19.371  0.00  0.00    +0.000 C 
ATOM     15  N2  UNL     1      -3.679  -1.579  20.007  0.00  0.00    +0.000 NA
BRANCH  15  16
ATOM     16  O1  UNL     1      -4.090  -2.914  19.928  0.00  0.00    +0.000 OA
ATOM     17  H   UNL     1      -4.446  -3.248  19.129  0.00  0.00    +0.000 HD
ENDBRANCH  15  16
ENDBRANCH  12  14
ENDBRANCH   1  13
BRANCH   6  18
ATOM     18  C14 UNL     1       1.253  -2.889  18.565  0.00  0.00    +0.000 C 
ATOM     19  O2  UNL     1       0.618  -3.810  18.050  0.00  0.00    +0.000 OA
BRANCH  18  20
ATOM     20  C15 UNL     1       2.020  -3.057  19.869  0.00  0.00    +0.000 C 
BRANCH  20  21
ATOM     21  C16 UNL     1       1.335  -2.409  21.081  0.00  0.00    +0.000 C 
ATOM     22  C17 UNL     1       0.054  -3.156  21.463  0.00  0.00    +0.000 C 
ATOM     23  C18 UNL     1       2.293  -2.384  22.273  0.00  0.00    +0.000 C 
ENDBRANCH  20  21
ENDBRANCH  18  20
ENDBRANCH   6  18
TORSDOF 6
ENDMDL
MODEL 5
REMARK VINA RESULT:    -5.954     22.807     25.886
REMARK INTER + INTRA:          -8.969
REMARK INTER:                  -7.727
REMARK INTRA:                  -1.242
REMARK UNBOUND:                -1.101
REMARK  Name = ligantes_geracao2\Derivado_004.pdb
REMARK  10 active torsions:
REMARK  status: ('A' for Active; 'I' for Inactive)
REMARK    1  A    between atoms: C1_1  and  C2_2
REMARK    2  A    between atoms: C5_6  and  C6_7
REMARK    3  A    between atoms: N2_8  and  O1_9
REMARK    4  A    between atoms: C7_10  and  C8_11
REMARK    5  A    between atoms: C11_14  and  C12_15
REMARK    6  A    between atoms: C13_16  and  C14_17
REMARK    7  A    between atoms: C14_17  and  C15_19
REMARK    8  A    between atoms: C15_19  and  C16_20
REMARK    9  A    between atoms: C16_20  and  C17_21
REMARK   10  A    between atoms: C16_20  and  C18_22
REMARK                            x       y       z     vdW  Elec       q    Type
REMARK                         _______ _______ _______ _____ _____    ______ ____
ROOT
ATOM      1  C8  UNL     1       1.088   0.772  18.347  0.00  0.00    +0.000 C 
ATOM      2  C9  UNL     1       2.220   1.658  17.797  0.00  0.00    +0.000 C 
ATOM      3  C10 UNL     1       1.509   2.706  16.950  0.00  0.00    +0.000 C 
ATOM      4  C11 UNL     1       0.377   1.921  16.292  0.00  0.00    +0.000 C 
ATOM      5  C12 UNL     1      -0.665   2.810  15.626  0.00  0.00    +0.000 C 
ATOM      6  C13 UNL     1      -0.131   0.981  17.404  0.00  0.00    +0.000 C 
ENDROOT
BRANCH   1  13
ATOM      7  C1  UNL     1       2.163  -1.221  16.200  0.00  0.00    +0.000 C 
ATOM      8  C2  UNL     1       1.953  -1.567  17.646  0.00  0.00    +0.000 C 
ATOM      9  N1  UNL     1       2.234  -2.873  17.909  0.00  0.00    +0.000 NA
ATOM     10  C3  UNL     1       2.120  -3.324  19.169  0.00  0.00    +0.000 C 
ATOM     11  C4  UNL     1       1.750  -2.521  20.218  0.00  0.00    +0.000 C 
ATOM     12  C5  UNL     1       1.461  -1.180  19.954  0.00  0.00    +0.000 C 
ATOM     13  C7  UNL     1       1.510  -0.664  18.633  0.00  0.00    +0.000 C 
BRANCH  12  14
ATOM     14  C6  UNL     1       1.150  -0.340  21.138  0.00  0.00    +0.000 C 
ATOM     15  N2  UNL     1       1.517  -0.681  22.335  0.00  0.00    +0.000 NA
BRANCH  15  16
ATOM     16  O1  UNL     1       1.098   0.307  23.234  0.00  0.00    +0.000 OA
ATOM     17  H   UNL     1       1.719   0.914  23.585  0.00  0.00    +0.000 HD
ENDBRANCH  15  16
ENDBRANCH  12  14
ENDBRANCH   1  13
BRANCH   6  18
ATOM     18  C14 UNL     1      -1.301   1.570  18.200  0.00  0.00    +0.000 C 
ATOM     19  O2  UNL     1      -2.466   1.423  17.831  0.00  0.00    +0.000 OA
BRANCH  18  20
ATOM     20  C15 UNL     1      -0.932   2.379  19.436  0.00  0.00    +0.000 C 
BRANCH  20  21
ATOM     21  C16 UNL     1      -0.975   3.898  19.219  0.00  0.00    +0.000 C 
ATOM     22  C17 UNL     1      -2.292   4.497  19.719  0.00  0.00    +0.000 C 
ATOM     23  C18 UNL     1       0.200   4.563  19.938  0.00  0.00    +0.000 C 
ENDBRANCH  20  21
ENDBRANCH  18  20
ENDBRANCH   6  18
TORSDOF 6
ENDMDL
MODEL 6
REMARK VINA RESULT:    -5.939      2.583      4.445
REMARK INTER + INTRA:          -8.950
REMARK INTER:                  -8.025
REMARK INTRA:                  -0.924
REMARK UNBOUND:                -1.101
REMARK  Name = ligantes_geracao2\Derivado_004.pdb
REMARK  10 active torsions:
REMARK  status: ('A' for Active; 'I' for Inactive)
REMARK    1  A    between atoms: C1_1  and  C2_2
REMARK    2  A    between atoms: C5_6  and  C6_7
REMARK    3  A    between atoms: N2_8  and  O1_9
REMARK    4  A    between atoms: C7_10  and  C8_11
REMARK    5  A    between atoms: C11_14  and  C12_15
REMARK    6  A    between atoms: C13_16  and  C14_17
REMARK    7  A    between atoms: C14_17  and  C15_19
REMARK    8  A    between atoms: C15_19  and  C16_20
REMARK    9  A    between atoms: C16_20  and  C17_21
REMARK   10  A    between atoms: C16_20  and  C18_22
REMARK                            x       y       z     vdW  Elec       q    Type
REMARK                         _______ _______ _______ _____ _____    ______ ____
ROOT
ATOM      1  C8  UNL     1      17.507  -6.875   1.533  0.00  0.00    +0.000 C 
ATOM      2  C9  UNL     1      16.912  -5.499   1.882  0.00  0.00    +0.000 C 
ATOM      3  C10 UNL     1      16.390  -4.959   0.557  0.00  0.00    +0.000 C 
ATOM      4  C11 UNL     1      17.439  -5.424  -0.452  0.00  0.00    +0.000 C 
ATOM      5  C12 UNL     1      16.994  -5.267  -1.899  0.00  0.00    +0.000 C 
ATOM      6  C13 UNL     1      17.800  -6.852   0.006  0.00  0.00    +0.000 C 
ENDROOT
BRANCH   1  13
ATOM      7  C1  UNL     1      20.247  -5.403   1.794  0.00  0.00    +0.000 C 
ATOM      8  C2  UNL     1      19.888  -6.661   2.530  0.00  0.00    +0.000 C 
ATOM      9  N1  UNL     1      20.919  -7.124   3.289  0.00  0.00    +0.000 NA
ATOM     10  C3  UNL     1      20.738  -8.230   4.030  0.00  0.00    +0.000 C 
ATOM     11  C4  UNL     1      19.549  -8.911   4.076  0.00  0.00    +0.000 C 
ATOM     12  C5  UNL     1      18.487  -8.440   3.299  0.00  0.00    +0.000 C 
ATOM     13  C7  UNL     1      18.640  -7.311   2.455  0.00  0.00    +0.000 C 
BRANCH  12  14
ATOM     14  C6  UNL     1      17.201  -9.166   3.453  0.00  0.00    +0.000 C 
ATOM     15  N2  UNL     1      17.133 -10.460   3.392  0.00  0.00    +0.000 NA
BRANCH  15  16
ATOM     16  O1  UNL     1      15.804 -10.852   3.587  0.00  0.00    +0.000 OA
ATOM     17  H   UNL     1      15.520 -11.144   4.431  0.00  0.00    +0.000 HD
ENDBRANCH  15  16
ENDBRANCH  12  14
ENDBRANCH   1  13
BRANCH   6  18
ATOM     18  C14 UNL     1      16.972  -7.934  -0.694  0.00  0.00    +0.000 C 
ATOM     19  O2  UNL     1      15.797  -8.141  -0.388  0.00  0.00    +0.000 OA
BRANCH  18  20
ATOM     20  C15 UNL     1      17.698  -8.761  -1.745  0.00  0.00    +0.000 C 
BRANCH  20  21
ATOM     21  C16 UNL     1      16.996  -8.785  -3.111  0.00  0.00    +0.000 C 
ATOM     22  C17 UNL     1      17.975  -8.483  -4.248  0.00  0.00    +0.000 C 
ATOM     23  C18 UNL     1      16.343 -10.150  -3.340  0.00  0.00    +0.000 C 
ENDBRANCH  20  21
ENDBRANCH  18  20
ENDBRANCH   6  18
TORSDOF 6
ENDMDL
MODEL 7
REMARK VINA RESULT:    -5.902     21.671     24.785
REMARK INTER + INTRA:          -8.901
REMARK INTER:                  -8.346
REMARK INTRA:                  -0.555
REMARK UNBOUND:                -1.101
REMARK  Name = ligantes_geracao2\Derivado_004.pdb
REMARK  10 active torsions:
REMARK  status: ('A' for Active; 'I' for Inactive)
REMARK    1  A    between atoms: C1_1  and  C2_2
REMARK    2  A    between atoms: C5_6  and  C6_7
REMARK    3  A    between atoms: N2_8  and  O1_9
REMARK    4  A    between atoms: C7_10  and  C8_11
REMARK    5  A    between atoms: C11_14  and  C12_15
REMARK    6  A    between atoms: C13_16  and  C14_17
REMARK    7  A    between atoms: C14_17  and  C15_19
REMARK    8  A    between atoms: C15_19  and  C16_20
REMARK    9  A    between atoms: C16_20  and  C17_21
REMARK   10  A    between atoms: C16_20  and  C18_22
REMARK                            x       y       z     vdW  Elec       q    Type
REMARK                         _______ _______ _______ _____ _____    ______ ____
ROOT
ATOM      1  C8  UNL     1       0.543  -1.995  19.115  0.00  0.00    +0.000 C 
ATOM      2  C9  UNL     1       0.118  -3.373  19.651  0.00  0.00    +0.000 C 
ATOM      3  C10 UNL     1       0.509  -3.350  21.123  0.00  0.00    +0.000 C 
ATOM      4  C11 UNL     1       1.831  -2.585  21.126  0.00  0.00    +0.000 C 
ATOM      5  C12 UNL     1       2.281  -2.164  22.518  0.00  0.00    +0.000 C 
ATOM      6  C13 UNL     1       1.617  -1.453  20.101  0.00  0.00    +0.000 C 
ENDROOT
BRANCH   1  13
ATOM      7  C1  UNL     1      -1.048  -0.438  16.927  0.00  0.00    +0.000 C 
ATOM      8  C2  UNL     1       0.138  -1.316  16.648  0.00  0.00    +0.000 C 
ATOM      9  N1  UNL     1       0.411  -1.404  15.317  0.00  0.00    +0.000 NA
ATOM     10  C3  UNL     1       1.465  -2.133  14.914  0.00  0.00    +0.000 C 
ATOM     11  C4  UNL     1       2.298  -2.785  15.787  0.00  0.00    +0.000 C 
ATOM     12  C5  UNL     1       2.022  -2.699  17.154  0.00  0.00    +0.000 C 
ATOM     13  C7  UNL     1       0.891  -1.989  17.631  0.00  0.00    +0.000 C 
BRANCH  12  14
ATOM     14  C6  UNL     1       3.005  -3.352  18.055  0.00  0.00    +0.000 C 
ATOM     15  N2  UNL     1       3.026  -4.637  18.230  0.00  0.00    +0.000 NA
BRANCH  15  16
ATOM     16  O1  UNL     1       4.063  -4.956  19.114  0.00  0.00    +0.000 OA
ATOM     17  H   UNL     1       4.650  -4.288  19.408  0.00  0.00    +0.000 HD
ENDBRANCH  15  16
ENDBRANCH  12  14
ENDBRANCH   1  13
BRANCH   6  18
ATOM     18  C14 UNL     1       1.120  -0.151  20.739  0.00  0.00    +0.000 C 
ATOM     19  O2  UNL     1       0.045  -0.100  21.337  0.00  0.00    +0.000 OA
BRANCH  18  20
ATOM     20  C15 UNL     1       2.006   1.071  20.547  0.00  0.00    +0.000 C 
BRANCH  20  21
ATOM     21  C16 UNL     1       3.212   1.119  21.496  0.00  0.00    +0.000 C 
ATOM     22  C17 UNL     1       4.203   2.212  21.086  0.00  0.00    +0.000 C 
ATOM     23  C18 UNL     1       2.740   1.363  22.931  0.00  0.00    +0.000 C 
ENDBRANCH  20  21
ENDBRANCH  18  20
ENDBRANCH   6  18
TORSDOF 6
ENDMDL
MODEL 8
REMARK VINA RESULT:    -5.882      2.412      4.846
REMARK INTER + INTRA:          -8.874
REMARK INTER:                  -7.849
REMARK INTRA:                  -1.026
REMARK UNBOUND:                -1.101
REMARK  Name = ligantes_geracao2\Derivado_004.pdb
REMARK  10 active torsions:
REMARK  status: ('A' for Active; 'I' for Inactive)
REMARK    1  A    between atoms: C1_1  and  C2_2
REMARK    2  A    between atoms: C5_6  and  C6_7
REMARK    3  A    between atoms: N2_8  and  O1_9
REMARK    4  A    between atoms: C7_10  and  C8_11
REMARK    5  A    between atoms: C11_14  and  C12_15
REMARK    6  A    between atoms: C13_16  and  C14_17
REMARK    7  A    between atoms: C14_17  and  C15_19
REMARK    8  A    between atoms: C15_19  and  C16_20
REMARK    9  A    between atoms: C16_20  and  C17_21
REMARK   10  A    between atoms: C16_20  and  C18_22
REMARK                            x       y       z     vdW  Elec       q    Type
REMARK                         _______ _______ _______ _____ _____    ______ ____
ROOT
ATOM      1  C8  UNL     1      16.183  -5.941   0.368  0.00  0.00    +0.000 C 
ATOM      2  C9  UNL     1      15.352  -5.385  -0.802  0.00  0.00    +0.000 C 
ATOM      3  C10 UNL     1      16.374  -5.086  -1.891  0.00  0.00    +0.000 C 
ATOM      4  C11 UNL     1      17.576  -4.555  -1.112  0.00  0.00    +0.000 C 
ATOM      5  C12 UNL     1      18.845  -4.465  -1.948  0.00  0.00    +0.000 C 
ATOM      6  C13 UNL     1      17.641  -5.450   0.143  0.00  0.00    +0.000 C 
ENDROOT
BRANCH   1  13
ATOM      7  C1  UNL     1      15.639  -3.115   1.576  0.00  0.00    +0.000 C 
ATOM      8  C2  UNL     1      15.366  -4.407   2.290  0.00  0.00    +0.000 C 
ATOM      9  N1  UNL     1      14.902  -4.209   3.554  0.00  0.00    +0.000 NA
ATOM     10  C3  UNL     1      14.585  -5.274   4.307  0.00  0.00    +0.000 C 
ATOM     11  C4  UNL     1      14.688  -6.565   3.855  0.00  0.00    +0.000 C 
ATOM     12  C5  UNL     1      15.163  -6.775   2.558  0.00  0.00    +0.000 C 
ATOM     13  C7  UNL     1      15.566  -5.689   1.739  0.00  0.00    +0.000 C 
BRANCH  12  14
ATOM     14  C6  UNL     1      15.172  -8.184   2.092  0.00  0.00    +0.000 C 
ATOM     15  N2  UNL     1      15.454  -9.168   2.890  0.00  0.00    +0.000 NA
BRANCH  15  16
ATOM     16  O1  UNL     1      15.368 -10.368   2.176  0.00  0.00    +0.000 OA
ATOM     17  H   UNL     1      15.886 -11.105   2.434  0.00  0.00    +0.000 HD
ENDBRANCH  15  16
ENDBRANCH  12  14
ENDBRANCH   1  13
BRANCH   6  18
ATOM     18  C14 UNL     1      18.569  -6.658  -0.029  0.00  0.00    +0.000 C 
ATOM     19  O2  UNL     1      18.239  -7.629  -0.711  0.00  0.00    +0.000 OA
BRANCH  18  20
ATOM     20  C15 UNL     1      19.889  -6.602   0.726  0.00  0.00    +0.000 C 
BRANCH  20  21
ATOM     21  C16 UNL     1      19.756  -6.107   2.173  0.00  0.00    +0.000 C 
ATOM     22  C17 UNL     1      20.522  -7.008   3.145  0.00  0.00    +0.000 C 
ATOM     23  C18 UNL     1      20.274  -4.671   2.285  0.00  0.00    +0.000 C 
ENDBRANCH  20  21
ENDBRANCH  18  20
ENDBRANCH   6  18
TORSDOF 6
ENDMDL
MODEL 9
REMARK VINA RESULT:    -5.732     23.147     26.123
REMARK INTER + INTRA:          -8.676
REMARK INTER:                  -7.448
REMARK INTRA:                  -1.228
REMARK UNBOUND:                -1.101
REMARK  Name = ligantes_geracao2\Derivado_004.pdb
REMARK  10 active torsions:
REMARK  status: ('A' for Active; 'I' for Inactive)
REMARK    1  A    between atoms: C1_1  and  C2_2
REMARK    2  A    between atoms: C5_6  and  C6_7
REMARK    3  A    between atoms: N2_8  and  O1_9
REMARK    4  A    between atoms: C7_10  and  C8_11
REMARK    5  A    between atoms: C11_14  and  C12_15
REMARK    6  A    between atoms: C13_16  and  C14_17
REMARK    7  A    between atoms: C14_17  and  C15_19
REMARK    8  A    between atoms: C15_19  and  C16_20
REMARK    9  A    between atoms: C16_20  and  C17_21
REMARK   10  A    between atoms: C16_20  and  C18_22
REMARK                            x       y       z     vdW  Elec       q    Type
REMARK                         _______ _______ _______ _____ _____    ______ ____
ROOT
ATOM      1  C8  UNL     1       1.200   0.831  18.696  0.00  0.00    +0.000 C 
ATOM      2  C9  UNL     1       2.129   1.505  17.670  0.00  0.00    +0.000 C 
ATOM      3  C10 UNL     1       1.280   2.608  17.051  0.00  0.00    +0.000 C 
ATOM      4  C11 UNL     1      -0.107   1.976  16.953  0.00  0.00    +0.000 C 
ATOM      5  C12 UNL     1      -1.207   2.980  16.642  0.00  0.00    +0.000 C 
ATOM      6  C13 UNL     1      -0.254   1.179  18.266  0.00  0.00    +0.000 C 
ENDROOT
BRANCH   1  13
ATOM      7  C1  UNL     1       1.940  -1.230  16.472  0.00  0.00    +0.000 C 
ATOM      8  C2  UNL     1       1.810  -1.567  17.929  0.00  0.00    +0.000 C 
ATOM      9  N1  UNL     1       1.998  -2.894  18.169  0.00  0.00    +0.000 NA
ATOM     10  C3  UNL     1       1.942  -3.342  19.434  0.00  0.00    +0.000 C 
ATOM     11  C4  UNL     1       1.720  -2.519  20.508  0.00  0.00    +0.000 C 
ATOM     12  C5  UNL     1       1.526  -1.156  20.268  0.00  0.00    +0.000 C 
ATOM     13  C7  UNL     1       1.520  -0.637  18.948  0.00  0.00    +0.000 C 
BRANCH  12  14
ATOM     14  C6  UNL     1       1.377  -0.302  21.473  0.00  0.00    +0.000 C 
ATOM     15  N2  UNL     1       2.389   0.010  22.221  0.00  0.00    +0.000 NA
BRANCH  15  16
ATOM     16  O1  UNL     1       1.944   0.831  23.264  0.00  0.00    +0.000 OA
ATOM     17  H   UNL     1       1.955   1.762  23.165  0.00  0.00    +0.000 HD
ENDBRANCH  15  16
ENDBRANCH  12  14
ENDBRANCH   1  13
BRANCH   6  18
ATOM     18  C14 UNL     1      -0.941   1.978  19.379  0.00  0.00    +0.000 C 
ATOM     19  O2  UNL     1      -0.419   2.981  19.865  0.00  0.00    +0.000 OA
BRANCH  18  20
ATOM     20  C15 UNL     1      -2.274   1.431  19.872  0.00  0.00    +0.000 C 
BRANCH  20  21
ATOM     21  C16 UNL     1      -2.504  -0.047  19.527  0.00  0.00    +0.000 C 
ATOM     22  C17 UNL     1      -2.254  -0.949  20.739  0.00  0.00    +0.000 C 
ATOM     23  C18 UNL     1      -3.933  -0.250  19.019  0.00  0.00    +0.000 C 
ENDBRANCH  20  21
ENDBRANCH  18  20
ENDBRANCH   6  18
TORSDOF 6
ENDMDL
