MODEL 1
REMARK VINA RESULT:    -9.369      0.000      0.000
REMARK INTER + INTRA:         -12.818
REMARK INTER:                 -11.560
REMARK INTRA:                  -1.258
REMARK UNBOUND:                -1.258
REMARK  Name = ligantes_geracao2\Derivado_022.pdb
REMARK  7 active torsions:
REMARK  status: ('A' for Active; 'I' for Inactive)
REMARK    1  A    between atoms: C1_1  and  C2_2
REMARK    2  A    between atoms: C5_6  and  C6_7
REMARK    3  A    between atoms: C10_12  and  C11_13
REMARK    4  A    between atoms: C11_13  and  C12_15
REMARK    5  A    between atoms: C12_15  and  C13_16
REMARK    6  A    between atoms: C12_15  and  C14_17
REMARK    7  A    between atoms: C15_18  and  C16_19
REMARK                            x       y       z     vdW  Elec       q    Type
REMARK                         _______ _______ _______ _____ _____    ______ ____
ROOT
ATOM      1  C6  UNL     1       4.693  67.214  65.055  0.00  0.00    +0.000 C 
ATOM      2  C7  UNL     1       4.717  68.740  64.911  0.00  0.00    +0.000 C 
ATOM      3  C8  UNL     1       4.481  68.954  63.423  0.00  0.00    +0.000 C 
ATOM      4  C9  UNL     1       3.430  67.913  63.082  0.00  0.00    +0.000 C 
ATOM      5  F1  UNL     1       2.213  68.395  63.467  0.00  0.00    +0.000 F 
ATOM      6  C10 UNL     1       3.745  66.697  63.947  0.00  0.00    +0.000 C 
ENDROOT
BRANCH   1  12
ATOM      7  C1  UNL     1       1.804  66.175  69.237  0.00  0.00    +0.000 C 
ATOM      8  C2  UNL     1       3.068  66.156  68.416  0.00  0.00    +0.000 C 
ATOM      9  C3  UNL     1       4.205  65.561  68.957  0.00  0.00    +0.000 C 
ATOM     10  N1  UNL     1       5.387  65.482  68.330  0.00  0.00    +0.000 NA
ATOM     11  C4  UNL     1       5.457  66.029  67.101  0.00  0.00    +0.000 C 
ATOM     12  C5  UNL     1       4.403  66.678  66.444  0.00  0.00    +0.000 C 
ATOM     13  C15 UNL     1       3.176  66.757  67.140  0.00  0.00    +0.000 C 
BRANCH  13  14
ATOM     14  C16 UNL     1       2.009  67.450  66.568  0.00  0.00    +0.000 C 
ATOM     15  C17 UNL     1       1.764  68.750  66.766  0.00  0.00    +0.000 C 
ATOM     16  F2  UNL     1       2.573  69.528  67.507  0.00  0.00    +0.000 F 
ENDBRANCH  13  14
ENDBRANCH   1  12
BRANCH   6  17
ATOM     17  C11 UNL     1       4.382  65.620  63.072  0.00  0.00    +0.000 C 
ATOM     18  O1  UNL     1       4.674  65.838  61.893  0.00  0.00    +0.000 OA
BRANCH  17  19
ATOM     19  C12 UNL     1       4.586  64.243  63.709  0.00  0.00    +0.000 C 
ATOM     20  C13 UNL     1       3.307  63.771  64.406  0.00  0.00    +0.000 C 
ATOM     21  C14 UNL     1       5.029  63.229  62.657  0.00  0.00    +0.000 C 
ENDBRANCH  17  19
ENDBRANCH   6  17
TORSDOF 4
ENDMDL
MODEL 2
REMARK VINA RESULT:    -9.125      2.665      5.469
REMARK INTER + INTRA:         -12.517
REMARK INTER:                 -10.875
REMARK INTRA:                  -1.641
REMARK UNBOUND:                -1.258
REMARK  Name = ligantes_geracao2\Derivado_022.pdb
REMARK  7 active torsions:
REMARK  status: ('A' for Active; 'I' for Inactive)
REMARK    1  A    between atoms: C1_1  and  C2_2
REMARK    2  A    between atoms: C5_6  and  C6_7
REMARK    3  A    between atoms: C10_12  and  C11_13
REMARK    4  A    between atoms: C11_13  and  C12_15
REMARK    5  A    between atoms: C12_15  and  C13_16
REMARK    6  A    between atoms: C12_15  and  C14_17
REMARK    7  A    between atoms: C15_18  and  C16_19
REMARK                            x       y       z     vdW  Elec       q    Type
REMARK                         _______ _______ _______ _____ _____    ______ ____
ROOT
ATOM      1  C6  UNL     1       4.325  65.960  67.051  0.00  0.00    +0.000 C 
ATOM      2  C7  UNL     1       5.585  65.516  67.802  0.00  0.00    +0.000 C 
ATOM      3  C8  UNL     1       5.127  65.468  69.252  0.00  0.00    +0.000 C 
ATOM      4  C9  UNL     1       3.734  64.874  69.159  0.00  0.00    +0.000 C 
ATOM      5  F1  UNL     1       3.853  63.521  69.026  0.00  0.00    +0.000 F 
ATOM      6  C10 UNL     1       3.129  65.418  67.869  0.00  0.00    +0.000 C 
ENDROOT
BRANCH   1  12
ATOM      7  C1  UNL     1       4.953  66.840  61.976  0.00  0.00    +0.000 C 
ATOM      8  C2  UNL     1       4.585  66.009  63.179  0.00  0.00    +0.000 C 
ATOM      9  C3  UNL     1       4.120  64.713  62.977  0.00  0.00    +0.000 C 
ATOM     10  N1  UNL     1       3.759  63.877  63.960  0.00  0.00    +0.000 NA
ATOM     11  C4  UNL     1       3.855  64.348  65.219  0.00  0.00    +0.000 C 
ATOM     12  C5  UNL     1       4.282  65.636  65.569  0.00  0.00    +0.000 C 
ATOM     13  C15 UNL     1       4.640  66.496  64.506  0.00  0.00    +0.000 C 
BRANCH  13  14
ATOM     14  C16 UNL     1       5.067  67.885  64.749  0.00  0.00    +0.000 C 
ATOM     15  C17 UNL     1       4.245  68.932  64.622  0.00  0.00    +0.000 C 
ATOM     16  F2  UNL     1       2.957  68.794  64.262  0.00  0.00    +0.000 F 
ENDBRANCH  13  14
ENDBRANCH   1  12
BRANCH   6  17
ATOM     17  C11 UNL     1       2.108  66.500  68.219  0.00  0.00    +0.000 C 
ATOM     18  O1  UNL     1       1.312  66.355  69.149  0.00  0.00    +0.000 OA
BRANCH  17  19
ATOM     19  C12 UNL     1       2.084  67.741  67.324  0.00  0.00    +0.000 C 
ATOM     20  C13 UNL     1       0.675  67.993  66.781  0.00  0.00    +0.000 C 
ATOM     21  C14 UNL     1       2.588  68.961  68.091  0.00  0.00    +0.000 C 
ENDBRANCH  17  19
ENDBRANCH   6  17
TORSDOF 4
ENDMDL
MODEL 3
REMARK VINA RESULT:    -8.819      2.321      4.874
REMARK INTER + INTRA:         -12.140
REMARK INTER:                 -11.020
REMARK INTRA:                  -1.119
REMARK UNBOUND:                -1.258
REMARK  Name = ligantes_geracao2\Derivado_022.pdb
REMARK  7 active torsions:
REMARK  status: ('A' for Active; 'I' for Inactive)
REMARK    1  A    between atoms: C1_1  and  C2_2
REMARK    2  A    between atoms: C5_6  and  C6_7
REMARK    3  A    between atoms: C10_12  and  C11_13
REMARK    4  A    between atoms: C11_13  and  C12_15
REMARK    5  A    between atoms: C12_15  and  C13_16
REMARK    6  A    between atoms: C12_15  and  C14_17
REMARK    7  A    between atoms: C15_18  and  C16_19
REMARK                            x       y       z     vdW  Elec       q    Type
REMARK                         _______ _______ _______ _____ _____    ______ ____
ROOT
ATOM      1  C6  UNL     1       2.285  66.709  66.129  0.00  0.00    +0.000 C 
ATOM      2  C7  UNL     1       1.265  67.801  65.787  0.00  0.00    +0.000 C 
ATOM      3  C8  UNL     1       1.131  68.573  67.091  0.00  0.00    +0.000 C 
ATOM      4  C9  UNL     1       2.556  68.636  67.608  0.00  0.00    +0.000 C 
ATOM      5  F1  UNL     1       3.208  69.634  66.944  0.00  0.00    +0.000 F 
ATOM      6  C10 UNL     1       3.206  67.313  67.216  0.00  0.00    +0.000 C 
ENDROOT
BRANCH   1  12
ATOM      7  C1  UNL     1       4.901  66.647  61.648  0.00  0.00    +0.000 C 
ATOM      8  C2  UNL     1       4.262  66.019  62.861  0.00  0.00    +0.000 C 
ATOM      9  C3  UNL     1       4.307  64.635  62.998  0.00  0.00    +0.000 C 
ATOM     10  N1  UNL     1       3.777  63.959  64.026  0.00  0.00    +0.000 NA
ATOM     11  C4  UNL     1       3.156  64.689  64.973  0.00  0.00    +0.000 C 
ATOM     12  C5  UNL     1       3.013  66.083  64.953  0.00  0.00    +0.000 C 
ATOM     13  C15 UNL     1       3.571  66.762  63.847  0.00  0.00    +0.000 C 
BRANCH  13  14
ATOM     14  C16 UNL     1       3.449  68.223  63.698  0.00  0.00    +0.000 C 
ATOM     15  C17 UNL     1       4.420  69.073  64.047  0.00  0.00    +0.000 C 
ATOM     16  F2  UNL     1       5.590  68.655  64.561  0.00  0.00    +0.000 F 
ENDBRANCH  13  14
ENDBRANCH   1  12
BRANCH   6  17
ATOM     17  C11 UNL     1       3.319  66.430  68.458  0.00  0.00    +0.000 C 
ATOM     18  O1  UNL     1       2.354  66.241  69.203  0.00  0.00    +0.000 OA
BRANCH  17  19
ATOM     19  C12 UNL     1       4.699  65.843  68.764  0.00  0.00    +0.000 C 
ATOM     20  C13 UNL     1       4.574  64.423  69.323  0.00  0.00    +0.000 C 
ATOM     21  C14 UNL     1       5.572  65.851  67.512  0.00  0.00    +0.000 C 
ENDBRANCH  17  19
ENDBRANCH   6  17
TORSDOF 4
ENDMDL
MODEL 4
REMARK VINA RESULT:    -8.742      2.436      3.911
REMARK INTER + INTRA:         -12.044
REMARK INTER:                 -10.559
REMARK INTRA:                  -1.485
REMARK UNBOUND:                -1.258
REMARK  Name = ligantes_geracao2\Derivado_022.pdb
REMARK  7 active torsions:
REMARK  status: ('A' for Active; 'I' for Inactive)
REMARK    1  A    between atoms: C1_1  and  C2_2
REMARK    2  A    between atoms: C5_6  and  C6_7
REMARK    3  A    between atoms: C10_12  and  C11_13
REMARK    4  A    between atoms: C11_13  and  C12_15
REMARK    5  A    between atoms: C12_15  and  C13_16
REMARK    6  A    between atoms: C12_15  and  C14_17
REMARK    7  A    between atoms: C15_18  and  C16_19
REMARK                            x       y       z     vdW  Elec       q    Type
REMARK                         _______ _______ _______ _____ _____    ______ ____
ROOT
ATOM      1  C6  UNL     1       2.763  66.711  67.827  0.00  0.00    +0.000 C 
ATOM      2  C7  UNL     1       3.082  68.090  68.414  0.00  0.00    +0.000 C 
ATOM      3  C8  UNL     1       3.102  68.994  67.190  0.00  0.00    +0.000 C 
ATOM      4  C9  UNL     1       1.938  68.484  66.360  0.00  0.00    +0.000 C 
ATOM      5  F1  UNL     1       0.786  69.004  66.875  0.00  0.00    +0.000 F 
ATOM      6  C10 UNL     1       1.902  66.973  66.568  0.00  0.00    +0.000 C 
ENDROOT
BRANCH   1  12
ATOM      7  C1  UNL     1       2.715  62.400  70.713  0.00  0.00    +0.000 C 
ATOM      8  C2  UNL     1       2.140  63.685  70.175  0.00  0.00    +0.000 C 
ATOM      9  C3  UNL     1       0.867  64.070  70.589  0.00  0.00    +0.000 C 
ATOM     10  N1  UNL     1       0.246  65.186  70.183  0.00  0.00    +0.000 NA
ATOM     11  C4  UNL     1       0.914  65.966  69.310  0.00  0.00    +0.000 C 
ATOM     12  C5  UNL     1       2.187  65.691  68.791  0.00  0.00    +0.000 C 
ATOM     13  C15 UNL     1       2.805  64.499  69.229  0.00  0.00    +0.000 C 
BRANCH  13  14
ATOM     14  C16 UNL     1       4.125  64.086  68.722  0.00  0.00    +0.000 C 
ATOM     15  C17 UNL     1       5.245  64.777  68.958  0.00  0.00    +0.000 C 
ATOM     16  F2  UNL     1       5.249  65.910  69.683  0.00  0.00    +0.000 F 
ENDBRANCH  13  14
ENDBRANCH   1  12
BRANCH   6  17
ATOM     17  C11 UNL     1       2.450  66.289  65.317  0.00  0.00    +0.000 C 
ATOM     18  O1  UNL     1       1.891  66.403  64.224  0.00  0.00    +0.000 OA
BRANCH  17  19
ATOM     19  C12 UNL     1       3.690  65.409  65.499  0.00  0.00    +0.000 C 
ATOM     20  C13 UNL     1       3.532  64.085  64.748  0.00  0.00    +0.000 C 
ATOM     21  C14 UNL     1       4.941  66.147  65.029  0.00  0.00    +0.000 C 
ENDBRANCH  17  19
ENDBRANCH   6  17
TORSDOF 4
ENDMDL
MODEL 5
REMARK VINA RESULT:    -7.604      6.619      8.789
REMARK INTER + INTRA:         -10.640
REMARK INTER:                  -9.817
REMARK INTRA:                  -0.823
REMARK UNBOUND:                -1.258
REMARK  Name = ligantes_geracao2\Derivado_022.pdb
REMARK  7 active torsions:
REMARK  status: ('A' for Active; 'I' for Inactive)
REMARK    1  A    between atoms: C1_1  and  C2_2
REMARK    2  A    between atoms: C5_6  and  C6_7
REMARK    3  A    between atoms: C10_12  and  C11_13
REMARK    4  A    between atoms: C11_13  and  C12_15
REMARK    5  A    between atoms: C12_15  and  C13_16
REMARK    6  A    between atoms: C12_15  and  C14_17
REMARK    7  A    between atoms: C15_18  and  C16_19
REMARK                            x       y       z     vdW  Elec       q    Type
REMARK                         _______ _______ _______ _____ _____    ______ ____
ROOT
ATOM      1  C6  UNL     1       2.159  61.107  69.943  0.00  0.00    +0.000 C 
ATOM      2  C7  UNL     1       2.838  59.852  69.386  0.00  0.00    +0.000 C 
ATOM      3  C8  UNL     1       4.174  60.375  68.878  0.00  0.00    +0.000 C 
ATOM      4  C9  UNL     1       4.589  61.370  69.947  0.00  0.00    +0.000 C 
ATOM      5  F1  UNL     1       5.122  60.675  70.993  0.00  0.00    +0.000 F 
ATOM      6  C10 UNL     1       3.301  62.029  70.432  0.00  0.00    +0.000 C 
ENDROOT
BRANCH   1  12
ATOM      7  C1  UNL     1      -0.308  58.687  73.813  0.00  0.00    +0.000 C 
ATOM      8  C2  UNL     1      -0.123  59.774  72.785  0.00  0.00    +0.000 C 
ATOM      9  C3  UNL     1      -1.090  60.771  72.687  0.00  0.00    +0.000 C 
ATOM     10  N1  UNL     1      -1.041  61.788  71.816  0.00  0.00    +0.000 NA
ATOM     11  C4  UNL     1       0.019  61.821  70.985  0.00  0.00    +0.000 C 
ATOM     12  C5  UNL     1       1.051  60.874  70.954  0.00  0.00    +0.000 C 
ATOM     13  C15 UNL     1       0.960  59.808  71.876  0.00  0.00    +0.000 C 
BRANCH  13  14
ATOM     14  C16 UNL     1       1.966  58.732  71.911  0.00  0.00    +0.000 C 
ATOM     15  C17 UNL     1       3.075  58.796  72.654  0.00  0.00    +0.000 C 
ATOM     16  F2  UNL     1       3.357  59.856  73.433  0.00  0.00    +0.000 F 
ENDBRANCH  13  14
ENDBRANCH   1  12
BRANCH   6  17
ATOM     17  C11 UNL     1       3.219  63.439  69.851  0.00  0.00    +0.000 C 
ATOM     18  O1  UNL     1       2.300  64.206  70.149  0.00  0.00    +0.000 OA
BRANCH  17  19
ATOM     19  C12 UNL     1       4.297  63.832  68.838  0.00  0.00    +0.000 C 
ATOM     20  C13 UNL     1       3.683  64.084  67.458  0.00  0.00    +0.000 C 
ATOM     21  C14 UNL     1       5.057  65.066  69.319  0.00  0.00    +0.000 C 
ENDBRANCH  17  19
ENDBRANCH   6  17
TORSDOF 4
ENDMDL
MODEL 6
REMARK VINA RESULT:    -7.577      2.262      3.828
REMARK INTER + INTRA:         -10.607
REMARK INTER:                  -9.795
REMARK INTRA:                  -0.813
REMARK UNBOUND:                -1.258
REMARK  Name = ligantes_geracao2\Derivado_022.pdb
REMARK  7 active torsions:
REMARK  status: ('A' for Active; 'I' for Inactive)
REMARK    1  A    between atoms: C1_1  and  C2_2
REMARK    2  A    between atoms: C5_6  and  C6_7
REMARK    3  A    between atoms: C10_12  and  C11_13
REMARK    4  A    between atoms: C11_13  and  C12_15
REMARK    5  A    between atoms: C12_15  and  C13_16
REMARK    6  A    between atoms: C12_15  and  C14_17
REMARK    7  A    between atoms: C15_18  and  C16_19
REMARK                            x       y       z     vdW  Elec       q    Type
REMARK                         _______ _______ _______ _____ _____    ______ ____
ROOT
ATOM      1  C6  UNL     1       3.238  67.069  68.070  0.00  0.00    +0.000 C 
ATOM      2  C7  UNL     1       2.851  68.285  68.919  0.00  0.00    +0.000 C 
ATOM      3  C8  UNL     1       2.444  69.320  67.880  0.00  0.00    +0.000 C 
ATOM      4  C9  UNL     1       1.675  68.504  66.858  0.00  0.00    +0.000 C 
ATOM      5  F1  UNL     1       0.411  68.307  67.332  0.00  0.00    +0.000 F 
ATOM      6  C10 UNL     1       2.367  67.146  66.794  0.00  0.00    +0.000 C 
ENDROOT
BRANCH   1  12
ATOM      7  C1  UNL     1       1.081  62.844  70.172  0.00  0.00    +0.000 C 
ATOM      8  C2  UNL     1       2.235  63.719  69.754  0.00  0.00    +0.000 C 
ATOM      9  C3  UNL     1       3.531  63.290  70.027  0.00  0.00    +0.000 C 
ATOM     10  N1  UNL     1       4.637  63.975  69.708  0.00  0.00    +0.000 NA
ATOM     11  C4  UNL     1       4.457  65.160  69.092  0.00  0.00    +0.000 C 
ATOM     12  C5  UNL     1       3.214  65.726  68.777  0.00  0.00    +0.000 C 
ATOM     13  C15 UNL     1       2.069  64.984  69.141  0.00  0.00    +0.000 C 
BRANCH  13  14
ATOM     14  C16 UNL     1       0.710  65.495  68.897  0.00  0.00    +0.000 C 
ATOM     15  C17 UNL     1      -0.124  65.846  69.882  0.00  0.00    +0.000 C 
ATOM     16  F2  UNL     1       0.220  65.758  71.179  0.00  0.00    +0.000 F 
ENDBRANCH  13  14
ENDBRANCH   1  12
BRANCH   6  17
ATOM     17  C11 UNL     1       3.187  67.069  65.507  0.00  0.00    +0.000 C 
ATOM     18  O1  UNL     1       2.782  66.446  64.523  0.00  0.00    +0.000 OA
BRANCH  17  19
ATOM     19  C12 UNL     1       4.557  67.751  65.520  0.00  0.00    +0.000 C 
ATOM     20  C13 UNL     1       5.673  66.735  65.267  0.00  0.00    +0.000 C 
ATOM     21  C14 UNL     1       4.606  68.870  64.483  0.00  0.00    +0.000 C 
ENDBRANCH  17  19
ENDBRANCH   6  17
TORSDOF 4
ENDMDL
MODEL 7
REMARK VINA RESULT:    -7.361      5.790      8.153
REMARK INTER + INTRA:         -10.341
REMARK INTER:                  -9.666
REMARK INTRA:                  -0.675
REMARK UNBOUND:                -1.258
REMARK  Name = ligantes_geracao2\Derivado_022.pdb
REMARK  7 active torsions:
REMARK  status: ('A' for Active; 'I' for Inactive)
REMARK    1  A    between atoms: C1_1  and  C2_2
REMARK    2  A    between atoms: C5_6  and  C6_7
REMARK    3  A    between atoms: C10_12  and  C11_13
REMARK    4  A    between atoms: C11_13  and  C12_15
REMARK    5  A    between atoms: C12_15  and  C13_16
REMARK    6  A    between atoms: C12_15  and  C14_17
REMARK    7  A    between atoms: C15_18  and  C16_19
REMARK                            x       y       z     vdW  Elec       q    Type
REMARK                         _______ _______ _______ _____ _____    ______ ____
ROOT
ATOM      1  C6  UNL     1       2.285  61.869  70.064  0.00  0.00    +0.000 C 
ATOM      2  C7  UNL     1       2.378  60.344  69.936  0.00  0.00    +0.000 C 
ATOM      3  C8  UNL     1       3.562  60.144  69.002  0.00  0.00    +0.000 C 
ATOM      4  C9  UNL     1       4.557  61.191  69.470  0.00  0.00    +0.000 C 
ATOM      5  F1  UNL     1       5.194  60.710  70.576  0.00  0.00    +0.000 F 
ATOM      6  C10 UNL     1       3.729  62.399  69.897  0.00  0.00    +0.000 C 
ENDROOT
BRANCH   1  12
ATOM      7  C1  UNL     1       1.100  62.233  75.102  0.00  0.00    +0.000 C 
ATOM      8  C2  UNL     1       0.985  62.605  73.646  0.00  0.00    +0.000 C 
ATOM      9  C3  UNL     1       0.073  63.591  73.280  0.00  0.00    +0.000 C 
ATOM     10  N1  UNL     1      -0.124  64.008  72.021  0.00  0.00    +0.000 NA
ATOM     11  C4  UNL     1       0.615  63.413  71.065  0.00  0.00    +0.000 C 
ATOM     12  C5  UNL     1       1.551  62.393  71.285  0.00  0.00    +0.000 C 
ATOM     13  C15 UNL     1       1.722  61.967  72.620  0.00  0.00    +0.000 C 
BRANCH  13  14
ATOM     14  C16 UNL     1       2.648  60.876  72.968  0.00  0.00    +0.000 C 
ATOM     15  C17 UNL     1       2.256  59.607  73.115  0.00  0.00    +0.000 C 
ATOM     16  F2  UNL     1       0.976  59.228  72.953  0.00  0.00    +0.000 F 
ENDBRANCH  13  14
ENDBRANCH   1  12
BRANCH   6  17
ATOM     17  C11 UNL     1       3.845  63.482  68.825  0.00  0.00    +0.000 C 
ATOM     18  O1  UNL     1       3.630  63.236  67.636  0.00  0.00    +0.000 OA
BRANCH  17  19
ATOM     19  C12 UNL     1       4.300  64.867  69.291  0.00  0.00    +0.000 C 
ATOM     20  C13 UNL     1       5.514  65.340  68.488  0.00  0.00    +0.000 C 
ATOM     21  C14 UNL     1       3.155  65.871  69.173  0.00  0.00    +0.000 C 
ENDBRANCH  17  19
ENDBRANCH   6  17
TORSDOF 4
ENDMDL
MODEL 8
REMARK VINA RESULT:    -7.222      3.821      6.309
REMARK INTER + INTRA:         -10.169
REMARK INTER:                 -10.346
REMARK INTRA:                   0.176
REMARK UNBOUND:                -1.258
REMARK  Name = ligantes_geracao2\Derivado_022.pdb
REMARK  7 active torsions:
REMARK  status: ('A' for Active; 'I' for Inactive)
REMARK    1  A    between atoms: C1_1  and  C2_2
REMARK    2  A    between atoms: C5_6  and  C6_7
REMARK    3  A    between atoms: C10_12  and  C11_13
REMARK    4  A    between atoms: C11_13  and  C12_15
REMARK    5  A    between atoms: C12_15  and  C13_16
REMARK    6  A    between atoms: C12_15  and  C14_17
REMARK    7  A    between atoms: C15_18  and  C16_19
REMARK                            x       y       z     vdW  Elec       q    Type
REMARK                         _______ _______ _______ _____ _____    ______ ____
ROOT
ATOM      1  C6  UNL     1       3.058  64.914  69.377  0.00  0.00    +0.000 C 
ATOM      2  C7  UNL     1       4.572  64.676  69.389  0.00  0.00    +0.000 C 
ATOM      3  C8  UNL     1       4.693  63.224  69.826  0.00  0.00    +0.000 C 
ATOM      4  C9  UNL     1       3.560  62.540  69.084  0.00  0.00    +0.000 C 
ATOM      5  F1  UNL     1       3.964  62.314  67.800  0.00  0.00    +0.000 F 
ATOM      6  C10 UNL     1       2.415  63.548  69.041  0.00  0.00    +0.000 C 
ENDROOT
BRANCH   1  12
ATOM      7  C1  UNL     1       3.440  68.743  65.896  0.00  0.00    +0.000 C 
ATOM      8  C2  UNL     1       2.710  67.866  66.882  0.00  0.00    +0.000 C 
ATOM      9  C3  UNL     1       1.355  68.097  67.105  0.00  0.00    +0.000 C 
ATOM     10  N1  UNL     1       0.598  67.391  67.955  0.00  0.00    +0.000 NA
ATOM     11  C4  UNL     1       1.213  66.402  68.634  0.00  0.00    +0.000 C 
ATOM     12  C5  UNL     1       2.571  66.074  68.528  0.00  0.00    +0.000 C 
ATOM     13  C15 UNL     1       3.343  66.849  67.635  0.00  0.00    +0.000 C 
BRANCH  13  14
ATOM     14  C16 UNL     1       4.789  66.622  67.470  0.00  0.00    +0.000 C 
ATOM     15  C17 UNL     1       5.309  65.972  66.424  0.00  0.00    +0.000 C 
ATOM     16  F2  UNL     1       4.545  65.474  65.435  0.00  0.00    +0.000 F 
ENDBRANCH  13  14
ENDBRANCH   1  12
BRANCH   6  17
ATOM     17  C11 UNL     1       1.349  63.127  70.051  0.00  0.00    +0.000 C 
ATOM     18  O1  UNL     1       0.184  63.522  69.959  0.00  0.00    +0.000 OA
BRANCH  17  19
ATOM     19  C12 UNL     1       1.808  62.241  71.211  0.00  0.00    +0.000 C 
ATOM     20  C13 UNL     1       1.343  62.814  72.552  0.00  0.00    +0.000 C 
ATOM     21  C14 UNL     1       1.292  60.815  71.030  0.00  0.00    +0.000 C 
ENDBRANCH  17  19
ENDBRANCH   6  17
TORSDOF 4
ENDMDL
MODEL 9
REMARK VINA RESULT:    -7.153      6.241      8.492
REMARK INTER + INTRA:         -10.084
REMARK INTER:                  -8.579
REMARK INTRA:                  -1.505
REMARK UNBOUND:                -1.258
REMARK  Name = ligantes_geracao2\Derivado_022.pdb
REMARK  7 active torsions:
REMARK  status: ('A' for Active; 'I' for Inactive)
REMARK    1  A    between atoms: C1_1  and  C2_2
REMARK    2  A    between atoms: C5_6  and  C6_7
REMARK    3  A    between atoms: C10_12  and  C11_13
REMARK    4  A    between atoms: C11_13  and  C12_15
REMARK    5  A    between atoms: C12_15  and  C13_16
REMARK    6  A    between atoms: C12_15  and  C14_17
REMARK    7  A    between atoms: C15_18  and  C16_19
REMARK                            x       y       z     vdW  Elec       q    Type
REMARK                         _______ _______ _______ _____ _____    ______ ____
ROOT
ATOM      1  C6  UNL     1       2.392  60.447  70.712  0.00  0.00    +0.000 C 
ATOM      2  C7  UNL     1       3.020  59.115  70.288  0.00  0.00    +0.000 C 
ATOM      3  C8  UNL     1       3.884  59.500  69.096  0.00  0.00    +0.000 C 
ATOM      4  C9  UNL     1       4.491  60.825  69.518  0.00  0.00    +0.000 C 
ATOM      5  F1  UNL     1       5.542  60.567  70.350  0.00  0.00    +0.000 F 
ATOM      6  C10 UNL     1       3.418  61.541  70.332  0.00  0.00    +0.000 C 
ENDROOT
BRANCH   1  12
ATOM      7  C1  UNL     1      -1.003  61.492  74.493  0.00  0.00    +0.000 C 
ATOM      8  C2  UNL     1       0.301  60.980  73.937  0.00  0.00    +0.000 C 
ATOM      9  C3  UNL     1       1.249  60.471  74.821  0.00  0.00    +0.000 C 
ATOM     10  N1  UNL     1       2.443  59.988  74.453  0.00  0.00    +0.000 NA
ATOM     11  C4  UNL     1       2.726  60.017  73.136  0.00  0.00    +0.000 C 
ATOM     12  C5  UNL     1       1.881  60.521  72.139  0.00  0.00    +0.000 C 
ATOM     13  C15 UNL     1       0.636  61.036  72.564  0.00  0.00    +0.000 C 
BRANCH  13  14
ATOM     14  C16 UNL     1      -0.319  61.628  71.611  0.00  0.00    +0.000 C 
ATOM     15  C17 UNL     1      -0.309  62.923  71.281  0.00  0.00    +0.000 C 
ATOM     16  F2  UNL     1       0.582  63.789  71.796  0.00  0.00    +0.000 F 
ENDBRANCH  13  14
ENDBRANCH   1  12
BRANCH   6  17
ATOM     17  C11 UNL     1       2.813  62.655  69.479  0.00  0.00    +0.000 C 
ATOM     18  O1  UNL     1       2.012  62.410  68.574  0.00  0.00    +0.000 OA
BRANCH  17  19
ATOM     19  C12 UNL     1       3.295  64.080  69.762  0.00  0.00    +0.000 C 
ATOM     20  C13 UNL     1       4.654  64.336  69.107  0.00  0.00    +0.000 C 
ATOM     21  C14 UNL     1       2.265  65.097  69.275  0.00  0.00    +0.000 C 
ENDBRANCH  17  19
ENDBRANCH   6  17
TORSDOF 4
ENDMDL
