MODEL 1
REMARK VINA RESULT:    -6.076      0.000      0.000
REMARK INTER + INTRA:          -8.475
REMARK INTER:                  -7.496
REMARK INTRA:                  -0.978
REMARK UNBOUND:                -0.978
REMARK  Name = ligantes_geracao2\Derivado_020.pdb
REMARK  7 active torsions:
REMARK  status: ('A' for Active; 'I' for Inactive)
REMARK    1  A    between atoms: C1_1  and  C2_2
REMARK    2  A    between atoms: C5_6  and  C6_7
REMARK    3  A    between atoms: C8_10  and  C9_11
REMARK    4  A    between atoms: C13_16  and  C14_17
REMARK    5  A    between atoms: C14_17  and  C15_19
REMARK    6  A    between atoms: C15_19  and  C16_20
REMARK    7  A    between atoms: C15_19  and  C17_21
REMARK                            x       y       z     vdW  Elec       q    Type
REMARK                         _______ _______ _______ _____ _____    ______ ____
ROOT
ATOM      1  C9  UNL     1      16.584  -5.175   0.123  0.00  0.00    +0.000 C 
ATOM      2  C10 UNL     1      16.309  -6.228  -0.956  0.00  0.00    +0.000 C 
ATOM      3  C11 UNL     1      17.325  -5.908  -2.058  0.00  0.00    +0.000 C 
ATOM      4  C12 UNL     1      18.422  -5.070  -1.396  0.00  0.00    +0.000 C 
ATOM      5  F2  UNL     1      18.312  -3.791  -1.869  0.00  0.00    +0.000 F 
ATOM      6  C13 UNL     1      18.116  -5.032   0.102  0.00  0.00    +0.000 C 
ENDROOT
BRANCH   1  13
ATOM      7  C1  UNL     1      15.936  -2.654   1.555  0.00  0.00    +0.000 C 
ATOM      8  C2  UNL     1      15.647  -4.002   2.160  0.00  0.00    +0.000 C 
ATOM      9  N1  UNL     1      15.085  -3.925   3.393  0.00  0.00    +0.000 NA
ATOM     10  C3  UNL     1      14.771  -5.070   4.017  0.00  0.00    +0.000 C 
ATOM     11  C4  UNL     1      14.991  -6.311   3.464  0.00  0.00    +0.000 C 
ATOM     12  C5  UNL     1      15.576  -6.401   2.193  0.00  0.00    +0.000 C 
ATOM     13  C8  UNL     1      15.923  -5.224   1.493  0.00  0.00    +0.000 C 
BRANCH  12  14
ATOM     14  C6  UNL     1      15.781  -7.764   1.698  0.00  0.00    +0.000 C 
ATOM     15  C7  UNL     1      16.668  -8.604   2.235  0.00  0.00    +0.000 C 
ATOM     16  F1  UNL     1      17.461  -8.263   3.269  0.00  0.00    +0.000 F 
ENDBRANCH  12  14
ENDBRANCH   1  13
BRANCH   6  17
ATOM     17  C14 UNL     1      18.905  -6.145   0.780  0.00  0.00    +0.000 C 
ATOM     18  O1  UNL     1      19.130  -7.209   0.193  0.00  0.00    +0.000 OA
BRANCH  17  19
ATOM     19  C15 UNL     1      19.538  -5.882   2.145  0.00  0.00    +0.000 C 
ATOM     20  C16 UNL     1      20.455  -7.042   2.518  0.00  0.00    +0.000 C 
ATOM     21  C17 UNL     1      20.261  -4.546   2.237  0.00  0.00    +0.000 C 
ENDBRANCH  17  19
ENDBRANCH   6  17
TORSDOF 4
ENDMDL
MODEL 2
REMARK VINA RESULT:    -5.960      2.516      4.678
REMARK INTER + INTRA:          -8.332
REMARK INTER:                  -7.240
REMARK INTRA:                  -1.092
REMARK UNBOUND:                -0.978
REMARK  Name = ligantes_geracao2\Derivado_020.pdb
REMARK  7 active torsions:
REMARK  status: ('A' for Active; 'I' for Inactive)
REMARK    1  A    between atoms: C1_1  and  C2_2
REMARK    2  A    between atoms: C5_6  and  C6_7
REMARK    3  A    between atoms: C8_10  and  C9_11
REMARK    4  A    between atoms: C13_16  and  C14_17
REMARK    5  A    between atoms: C14_17  and  C15_19
REMARK    6  A    between atoms: C15_19  and  C16_20
REMARK    7  A    between atoms: C15_19  and  C17_21
REMARK                            x       y       z     vdW  Elec       q    Type
REMARK                         _______ _______ _______ _____ _____    ______ ____
ROOT
ATOM      1  C9  UNL     1      17.976  -7.918   0.377  0.00  0.00    +0.000 C 
ATOM      2  C10 UNL     1      18.608  -7.197  -0.819  0.00  0.00    +0.000 C 
ATOM      3  C11 UNL     1      17.465  -7.087  -1.834  0.00  0.00    +0.000 C 
ATOM      4  C12 UNL     1      16.169  -7.266  -1.039  0.00  0.00    +0.000 C 
ATOM      5  F2  UNL     1      15.637  -8.479  -1.378  0.00  0.00    +0.000 F 
ATOM      6  C13 UNL     1      16.554  -7.331   0.439  0.00  0.00    +0.000 C 
ENDROOT
BRANCH   1  13
ATOM      7  C1  UNL     1      17.220 -10.115   2.228  0.00  0.00    +0.000 C 
ATOM      8  C2  UNL     1      18.303  -9.128   2.575  0.00  0.00    +0.000 C 
ATOM      9  N1  UNL     1      18.862  -9.353   3.791  0.00  0.00    +0.000 NA
ATOM     10  C3  UNL     1      19.850  -8.541   4.193  0.00  0.00    +0.000 C 
ATOM     11  C4  UNL     1      20.321  -7.497   3.429  0.00  0.00    +0.000 C 
ATOM     12  C5  UNL     1      19.746  -7.253   2.173  0.00  0.00    +0.000 C 
ATOM     13  C8  UNL     1      18.704  -8.082   1.703  0.00  0.00    +0.000 C 
BRANCH  12  14
ATOM     14  C6  UNL     1      20.307  -6.113   1.445  0.00  0.00    +0.000 C 
ATOM     15  C7  UNL     1      19.956  -4.850   1.695  0.00  0.00    +0.000 C 
ATOM     16  F1  UNL     1      19.045  -4.519   2.630  0.00  0.00    +0.000 F 
ENDBRANCH  12  14
ENDBRANCH   1  13
BRANCH   6  17
ATOM     17  C14 UNL     1      16.429  -5.933   1.029  0.00  0.00    +0.000 C 
ATOM     18  O1  UNL     1      16.449  -4.935   0.302  0.00  0.00    +0.000 OA
BRANCH  17  19
ATOM     19  C15 UNL     1      16.136  -5.778   2.521  0.00  0.00    +0.000 C 
ATOM     20  C16 UNL     1      15.532  -4.404   2.787  0.00  0.00    +0.000 C 
ATOM     21  C17 UNL     1      15.267  -6.890   3.092  0.00  0.00    +0.000 C 
ENDBRANCH  17  19
ENDBRANCH   6  17
TORSDOF 4
ENDMDL
MODEL 3
REMARK VINA RESULT:    -5.834      2.407      4.967
REMARK INTER + INTRA:          -8.177
REMARK INTER:                  -7.013
REMARK INTRA:                  -1.163
REMARK UNBOUND:                -0.978
REMARK  Name = ligantes_geracao2\Derivado_020.pdb
REMARK  7 active torsions:
REMARK  status: ('A' for Active; 'I' for Inactive)
REMARK    1  A    between atoms: C1_1  and  C2_2
REMARK    2  A    between atoms: C5_6  and  C6_7
REMARK    3  A    between atoms: C8_10  and  C9_11
REMARK    4  A    between atoms: C13_16  and  C14_17
REMARK    5  A    between atoms: C14_17  and  C15_19
REMARK    6  A    between atoms: C15_19  and  C16_20
REMARK    7  A    between atoms: C15_19  and  C17_21
REMARK                            x       y       z     vdW  Elec       q    Type
REMARK                         _______ _______ _______ _____ _____    ______ ____
ROOT
ATOM      1  C9  UNL     1      15.700  -6.657   0.656  0.00  0.00    +0.000 C 
ATOM      2  C10 UNL     1      14.766  -5.449   0.524  0.00  0.00    +0.000 C 
ATOM      3  C11 UNL     1      14.389  -5.110   1.971  0.00  0.00    +0.000 C 
ATOM      4  C12 UNL     1      15.458  -5.759   2.853  0.00  0.00    +0.000 C 
ATOM      5  F2  UNL     1      14.876  -6.805   3.513  0.00  0.00    +0.000 F 
ATOM      6  C13 UNL     1      16.520  -6.340   1.919  0.00  0.00    +0.000 C 
ENDROOT
BRANCH   1  13
ATOM      7  C1  UNL     1      16.316  -9.561   0.528  0.00  0.00    +0.000 C 
ATOM      8  C2  UNL     1      16.766  -8.610  -0.550  0.00  0.00    +0.000 C 
ATOM      9  N1  UNL     1      17.465  -9.219  -1.541  0.00  0.00    +0.000 NA
ATOM     10  C3  UNL     1      17.899  -8.466  -2.562  0.00  0.00    +0.000 C 
ATOM     11  C4  UNL     1      17.666  -7.113  -2.649  0.00  0.00    +0.000 C 
ATOM     12  C5  UNL     1      16.949  -6.473  -1.627  0.00  0.00    +0.000 C 
ATOM     13  C8  UNL     1      16.468  -7.223  -0.530  0.00  0.00    +0.000 C 
BRANCH  12  14
ATOM     14  C6  UNL     1      16.766  -5.031  -1.804  0.00  0.00    +0.000 C 
ATOM     15  C7  UNL     1      17.765  -4.154  -1.686  0.00  0.00    +0.000 C 
ATOM     16  F1  UNL     1      19.023  -4.521  -1.379  0.00  0.00    +0.000 F 
ENDBRANCH  12  14
ENDBRANCH   1  13
BRANCH   6  17
ATOM     17  C14 UNL     1      17.632  -5.312   1.759  0.00  0.00    +0.000 C 
ATOM     18  O1  UNL     1      17.418  -4.112   1.959  0.00  0.00    +0.000 OA
BRANCH  17  19
ATOM     19  C15 UNL     1      19.056  -5.793   1.484  0.00  0.00    +0.000 C 
ATOM     20  C16 UNL     1      20.056  -4.804   2.071  0.00  0.00    +0.000 C 
ATOM     21  C17 UNL     1      19.326  -7.212   1.965  0.00  0.00    +0.000 C 
ENDBRANCH  17  19
ENDBRANCH   6  17
TORSDOF 4
ENDMDL
MODEL 4
REMARK VINA RESULT:    -5.796     22.769     25.400
REMARK INTER + INTRA:          -8.130
REMARK INTER:                  -6.975
REMARK INTRA:                  -1.155
REMARK UNBOUND:                -0.978
REMARK  Name = ligantes_geracao2\Derivado_020.pdb
REMARK  7 active torsions:
REMARK  status: ('A' for Active; 'I' for Inactive)
REMARK    1  A    between atoms: C1_1  and  C2_2
REMARK    2  A    between atoms: C5_6  and  C6_7
REMARK    3  A    between atoms: C8_10  and  C9_11
REMARK    4  A    between atoms: C13_16  and  C14_17
REMARK    5  A    between atoms: C14_17  and  C15_19
REMARK    6  A    between atoms: C15_19  and  C16_20
REMARK    7  A    between atoms: C15_19  and  C17_21
REMARK                            x       y       z     vdW  Elec       q    Type
REMARK                         _______ _______ _______ _____ _____    ______ ____
ROOT
ATOM      1  C9  UNL     1      -0.117   0.814  19.942  0.00  0.00    +0.000 C 
ATOM      2  C10 UNL     1      -1.269   0.058  20.614  0.00  0.00    +0.000 C 
ATOM      3  C11 UNL     1      -2.337  -0.047  19.520  0.00  0.00    +0.000 C 
ATOM      4  C12 UNL     1      -1.609   0.174  18.191  0.00  0.00    +0.000 C 
ATOM      5  F2  UNL     1      -1.994   1.392  17.703  0.00  0.00    +0.000 F 
ATOM      6  C13 UNL     1      -0.115   0.258  18.506  0.00  0.00    +0.000 C 
ENDROOT
BRANCH   1  13
ATOM      7  C1  UNL     1       1.582   3.156  19.274  0.00  0.00    +0.000 C 
ATOM      8  C2  UNL     1       2.037   2.104  20.250  0.00  0.00    +0.000 C 
ATOM      9  N1  UNL     1       3.272   2.345  20.760  0.00  0.00    +0.000 NA
ATOM     10  C3  UNL     1       3.767   1.477  21.654  0.00  0.00    +0.000 C 
ATOM     11  C4  UNL     1       3.081   0.361  22.076  0.00  0.00    +0.000 C 
ATOM     12  C5  UNL     1       1.807   0.100  21.551  0.00  0.00    +0.000 C 
ATOM     13  C8  UNL     1       1.239   0.986  20.608  0.00  0.00    +0.000 C 
BRANCH  12  14
ATOM     14  C6  UNL     1       1.166  -1.117  22.053  0.00  0.00    +0.000 C 
ATOM     15  C7  UNL     1       1.520  -2.340  21.652  0.00  0.00    +0.000 C 
ATOM     16  F1  UNL     1       2.487  -2.556  20.741  0.00  0.00    +0.000 F 
ENDBRANCH  12  14
ENDBRANCH   1  13
BRANCH   6  17
ATOM     17  C14 UNL     1       0.492  -1.127  18.322  0.00  0.00    +0.000 C 
ATOM     18  O1  UNL     1      -0.208  -2.141  18.404  0.00  0.00    +0.000 OA
BRANCH  17  19
ATOM     19  C15 UNL     1       1.954  -1.247  17.894  0.00  0.00    +0.000 C 
ATOM     20  C16 UNL     1       2.153  -2.533  17.099  0.00  0.00    +0.000 C 
ATOM     21  C17 UNL     1       2.470  -0.034  17.133  0.00  0.00    +0.000 C 
ENDBRANCH  17  19
ENDBRANCH   6  17
TORSDOF 4
ENDMDL
MODEL 5
REMARK VINA RESULT:    -5.793     23.035     25.281
REMARK INTER + INTRA:          -8.126
REMARK INTER:                  -6.997
REMARK INTRA:                  -1.129
REMARK UNBOUND:                -0.978
REMARK  Name = ligantes_geracao2\Derivado_020.pdb
REMARK  7 active torsions:
REMARK  status: ('A' for Active; 'I' for Inactive)
REMARK    1  A    between atoms: C1_1  and  C2_2
REMARK    2  A    between atoms: C5_6  and  C6_7
REMARK    3  A    between atoms: C8_10  and  C9_11
REMARK    4  A    between atoms: C13_16  and  C14_17
REMARK    5  A    between atoms: C14_17  and  C15_19
REMARK    6  A    between atoms: C15_19  and  C16_20
REMARK    7  A    between atoms: C15_19  and  C17_21
REMARK                            x       y       z     vdW  Elec       q    Type
REMARK                         _______ _______ _______ _____ _____    ______ ____
ROOT
ATOM      1  C9  UNL     1       1.596  -1.578  19.888  0.00  0.00    +0.000 C 
ATOM      2  C10 UNL     1       2.130  -2.792  20.656  0.00  0.00    +0.000 C 
ATOM      3  C11 UNL     1       2.270  -2.290  22.098  0.00  0.00    +0.000 C 
ATOM      4  C12 UNL     1       1.379  -1.050  22.206  0.00  0.00    +0.000 C 
ATOM      5  F2  UNL     1       2.195   0.042  22.315  0.00  0.00    +0.000 F 
ATOM      6  C13 UNL     1       0.620  -0.925  20.884  0.00  0.00    +0.000 C 
ENDROOT
BRANCH   1  13
ATOM      7  C1  UNL     1       2.108   0.668  18.013  0.00  0.00    +0.000 C 
ATOM      8  C2  UNL     1       1.372  -0.572  17.578  0.00  0.00    +0.000 C 
ATOM      9  N1  UNL     1       0.982  -0.533  16.278  0.00  0.00    +0.000 NA
ATOM     10  C3  UNL     1       0.333  -1.597  15.782  0.00  0.00    +0.000 C 
ATOM     11  C4  UNL     1       0.049  -2.718  16.527  0.00  0.00    +0.000 C 
ATOM     12  C5  UNL     1       0.443  -2.765  17.873  0.00  0.00    +0.000 C 
ATOM     13  C8  UNL     1       1.133  -1.671  18.442  0.00  0.00    +0.000 C 
BRANCH  12  14
ATOM     14  C6  UNL     1       0.083  -3.994  18.583  0.00  0.00    +0.000 C 
ATOM     15  C7  UNL     1       0.704  -5.157  18.378  0.00  0.00    +0.000 C 
ATOM     16  F1  UNL     1       1.706  -5.302  17.490  0.00  0.00    +0.000 F 
ENDBRANCH  12  14
ENDBRANCH   1  13
BRANCH   6  17
ATOM     17  C14 UNL     1      -0.733  -1.604  21.042  0.00  0.00    +0.000 C 
ATOM     18  O1  UNL     1      -0.846  -2.647  21.696  0.00  0.00    +0.000 OA
BRANCH  17  19
ATOM     19  C15 UNL     1      -1.982  -0.910  20.502  0.00  0.00    +0.000 C 
ATOM     20  C16 UNL     1      -1.600   0.436  19.896  0.00  0.00    +0.000 C 
ATOM     21  C17 UNL     1      -2.777  -1.758  19.520  0.00  0.00    +0.000 C 
ENDBRANCH  17  19
ENDBRANCH   6  17
TORSDOF 4
ENDMDL
MODEL 6
REMARK VINA RESULT:    -5.774     23.698     25.659
REMARK INTER + INTRA:          -8.102
REMARK INTER:                  -7.187
REMARK INTRA:                  -0.914
REMARK UNBOUND:                -0.978
REMARK  Name = ligantes_geracao2\Derivado_020.pdb
REMARK  7 active torsions:
REMARK  status: ('A' for Active; 'I' for Inactive)
REMARK    1  A    between atoms: C1_1  and  C2_2
REMARK    2  A    between atoms: C5_6  and  C6_7
REMARK    3  A    between atoms: C8_10  and  C9_11
REMARK    4  A    between atoms: C13_16  and  C14_17
REMARK    5  A    between atoms: C14_17  and  C15_19
REMARK    6  A    between atoms: C15_19  and  C16_20
REMARK    7  A    between atoms: C15_19  and  C17_21
REMARK                            x       y       z     vdW  Elec       q    Type
REMARK                         _______ _______ _______ _____ _____    ______ ____
ROOT
ATOM      1  C9  UNL     1       1.735   0.879  18.708  0.00  0.00    +0.000 C 
ATOM      2  C10 UNL     1       2.636   2.112  18.845  0.00  0.00    +0.000 C 
ATOM      3  C11 UNL     1       2.148   3.054  17.739  0.00  0.00    +0.000 C 
ATOM      4  C12 UNL     1       0.740   2.584  17.369  0.00  0.00    +0.000 C 
ATOM      5  F2  UNL     1       0.802   2.024  16.123  0.00  0.00    +0.000 F 
ATOM      6  C13 UNL     1       0.362   1.476  18.352  0.00  0.00    +0.000 C 
ENDROOT
BRANCH   1  13
ATOM      7  C1  UNL     1       1.340  -1.930  17.826  0.00  0.00    +0.000 C 
ATOM      8  C2  UNL     1       1.529  -1.578  19.278  0.00  0.00    +0.000 C 
ATOM      9  N1  UNL     1       1.490  -2.658  20.099  0.00  0.00    +0.000 NA
ATOM     10  C3  UNL     1       1.665  -2.459  21.413  0.00  0.00    +0.000 C 
ATOM     11  C4  UNL     1       1.883  -1.216  21.962  0.00  0.00    +0.000 C 
ATOM     12  C5  UNL     1       1.920  -0.093  21.122  0.00  0.00    +0.000 C 
ATOM     13  C8  UNL     1       1.743  -0.250  19.729  0.00  0.00    +0.000 C 
BRANCH  12  14
ATOM     14  C6  UNL     1       2.144   1.185  21.802  0.00  0.00    +0.000 C 
ATOM     15  C7  UNL     1       3.337   1.558  22.268  0.00  0.00    +0.000 C 
ATOM     16  F1  UNL     1       4.434   0.784  22.165  0.00  0.00    +0.000 F 
ENDBRANCH  12  14
ENDBRANCH   1  13
BRANCH   6  17
ATOM     17  C14 UNL     1      -0.419   2.100  19.501  0.00  0.00    +0.000 C 
ATOM     18  O1  UNL     1      -0.171   3.248  19.884  0.00  0.00    +0.000 OA
BRANCH  17  19
ATOM     19  C15 UNL     1      -1.611   1.345  20.087  0.00  0.00    +0.000 C 
ATOM     20  C16 UNL     1      -2.841   2.245  20.086  0.00  0.00    +0.000 C 
ATOM     21  C17 UNL     1      -1.891   0.016  19.399  0.00  0.00    +0.000 C 
ENDBRANCH  17  19
ENDBRANCH   6  17
TORSDOF 4
ENDMDL
MODEL 7
REMARK VINA RESULT:    -5.758     30.151     31.869
REMARK INTER + INTRA:          -8.082
REMARK INTER:                  -7.002
REMARK INTRA:                  -1.080
REMARK UNBOUND:                -0.978
REMARK  Name = ligantes_geracao2\Derivado_020.pdb
REMARK  7 active torsions:
REMARK  status: ('A' for Active; 'I' for Inactive)
REMARK    1  A    between atoms: C1_1  and  C2_2
REMARK    2  A    between atoms: C5_6  and  C6_7
REMARK    3  A    between atoms: C8_10  and  C9_11
REMARK    4  A    between atoms: C13_16  and  C14_17
REMARK    5  A    between atoms: C14_17  and  C15_19
REMARK    6  A    between atoms: C15_19  and  C16_20
REMARK    7  A    between atoms: C15_19  and  C17_21
REMARK                            x       y       z     vdW  Elec       q    Type
REMARK                         _______ _______ _______ _____ _____    ______ ____
ROOT
ATOM      1  C9  UNL     1      20.989  19.871  18.059  0.00  0.00    +0.000 C 
ATOM      2  C10 UNL     1      21.360  19.119  16.775  0.00  0.00    +0.000 C 
ATOM      3  C11 UNL     1      20.887  20.046  15.650  0.00  0.00    +0.000 C 
ATOM      4  C12 UNL     1      20.745  21.436  16.274  0.00  0.00    +0.000 C 
ATOM      5  F2  UNL     1      19.411  21.727  16.346  0.00  0.00    +0.000 F 
ATOM      6  C13 UNL     1      21.272  21.342  17.706  0.00  0.00    +0.000 C 
ENDROOT
BRANCH   1  13
ATOM      7  C1  UNL     1      19.468  20.677  20.479  0.00  0.00    +0.000 C 
ATOM      8  C2  UNL     1      20.704  19.822  20.572  0.00  0.00    +0.000 C 
ATOM      9  N1  UNL     1      21.027  19.487  21.847  0.00  0.00    +0.000 NA
ATOM     10  C3  UNL     1      22.104  18.711  22.043  0.00  0.00    +0.000 C 
ATOM     11  C4  UNL     1      22.888  18.242  21.014  0.00  0.00    +0.000 C 
ATOM     12  C5  UNL     1      22.565  18.588  19.693  0.00  0.00    +0.000 C 
ATOM     13  C8  UNL     1      21.439  19.401  19.434  0.00  0.00    +0.000 C 
BRANCH  12  14
ATOM     14  C6  UNL     1      23.468  18.051  18.672  0.00  0.00    +0.000 C 
ATOM     15  C7  UNL     1      24.659  18.589  18.403  0.00  0.00    +0.000 C 
ATOM     16  F1  UNL     1      25.125  19.681  19.039  0.00  0.00    +0.000 F 
ENDBRANCH  12  14
ENDBRANCH   1  13
BRANCH   6  17
ATOM     17  C14 UNL     1      22.735  21.765  17.708  0.00  0.00    +0.000 C 
ATOM     18  O1  UNL     1      23.382  21.809  16.656  0.00  0.00    +0.000 OA
BRANCH  17  19
ATOM     19  C15 UNL     1      23.361  22.271  19.006  0.00  0.00    +0.000 C 
ATOM     20  C16 UNL     1      24.690  22.955  18.703  0.00  0.00    +0.000 C 
ATOM     21  C17 UNL     1      22.442  23.172  19.818  0.00  0.00    +0.000 C 
ENDBRANCH  17  19
ENDBRANCH   6  17
TORSDOF 4
ENDMDL
MODEL 8
REMARK VINA RESULT:    -5.703     23.176     25.309
REMARK INTER + INTRA:          -8.015
REMARK INTER:                  -6.856
REMARK INTRA:                  -1.159
REMARK UNBOUND:                -0.978
REMARK  Name = ligantes_geracao2\Derivado_020.pdb
REMARK  7 active torsions:
REMARK  status: ('A' for Active; 'I' for Inactive)
REMARK    1  A    between atoms: C1_1  and  C2_2
REMARK    2  A    between atoms: C5_6  and  C6_7
REMARK    3  A    between atoms: C8_10  and  C9_11
REMARK    4  A    between atoms: C13_16  and  C14_17
REMARK    5  A    between atoms: C14_17  and  C15_19
REMARK    6  A    between atoms: C15_19  and  C16_20
REMARK    7  A    between atoms: C15_19  and  C17_21
REMARK                            x       y       z     vdW  Elec       q    Type
REMARK                         _______ _______ _______ _____ _____    ______ ____
ROOT
ATOM      1  C9  UNL     1       1.359  -2.576  19.193  0.00  0.00    +0.000 C 
ATOM      2  C10 UNL     1       1.632  -2.673  17.688  0.00  0.00    +0.000 C 
ATOM      3  C11 UNL     1       1.131  -4.071  17.308  0.00  0.00    +0.000 C 
ATOM      4  C12 UNL     1       0.175  -4.500  18.425  0.00  0.00    +0.000 C 
ATOM      5  F2  UNL     1       0.784  -5.497  19.135  0.00  0.00    +0.000 F 
ATOM      6  C13 UNL     1       0.013  -3.302  19.362  0.00  0.00    +0.000 C 
ENDROOT
BRANCH   1  13
ATOM      7  C1  UNL     1       2.325  -2.635  22.002  0.00  0.00    +0.000 C 
ATOM      8  C2  UNL     1       1.975  -1.342  21.314  0.00  0.00    +0.000 C 
ATOM      9  N1  UNL     1       2.142  -0.253  22.108  0.00  0.00    +0.000 NA
ATOM     10  C3  UNL     1       1.875   0.954  21.588  0.00  0.00    +0.000 C 
ATOM     11  C4  UNL     1       1.445   1.135  20.294  0.00  0.00    +0.000 C 
ATOM     12  C5  UNL     1       1.264   0.016  19.468  0.00  0.00    +0.000 C 
ATOM     13  C8  UNL     1       1.534  -1.278  19.967  0.00  0.00    +0.000 C 
BRANCH  12  14
ATOM     14  C6  UNL     1       0.791   0.313  18.114  0.00  0.00    +0.000 C 
ATOM     15  C7  UNL     1       1.589   0.785  17.155  0.00  0.00    +0.000 C 
ATOM     16  F1  UNL     1       2.895   1.042  17.355  0.00  0.00    +0.000 F 
ENDBRANCH  12  14
ENDBRANCH   1  13
BRANCH   6  17
ATOM     17  C14 UNL     1      -1.228  -2.527  18.938  0.00  0.00    +0.000 C 
ATOM     18  O1  UNL     1      -1.540  -2.434  17.746  0.00  0.00    +0.000 OA
BRANCH  17  19
ATOM     19  C15 UNL     1      -2.165  -1.979  20.013  0.00  0.00    +0.000 C 
ATOM     20  C16 UNL     1      -1.681  -2.418  21.390  0.00  0.00    +0.000 C 
ATOM     21  C17 UNL     1      -2.360  -0.471  19.944  0.00  0.00    +0.000 C 
ENDBRANCH  17  19
ENDBRANCH   6  17
TORSDOF 4
ENDMDL
MODEL 9
REMARK VINA RESULT:    -5.666     21.752     24.992
REMARK INTER + INTRA:          -7.969
REMARK INTER:                  -6.978
REMARK INTRA:                  -0.992
REMARK UNBOUND:                -0.978
REMARK  Name = ligantes_geracao2\Derivado_020.pdb
REMARK  7 active torsions:
REMARK  status: ('A' for Active; 'I' for Inactive)
REMARK    1  A    between atoms: C1_1  and  C2_2
REMARK    2  A    between atoms: C5_6  and  C6_7
REMARK    3  A    between atoms: C8_10  and  C9_11
REMARK    4  A    between atoms: C13_16  and  C14_17
REMARK    5  A    between atoms: C14_17  and  C15_19
REMARK    6  A    between atoms: C15_19  and  C16_20
REMARK    7  A    between atoms: C15_19  and  C17_21
REMARK                            x       y       z     vdW  Elec       q    Type
REMARK                         _______ _______ _______ _____ _____    ______ ____
ROOT
ATOM      1  C9  UNL     1      -0.221  -1.597  18.783  0.00  0.00    +0.000 C 
ATOM      2  C10 UNL     1      -1.129  -0.411  18.435  0.00  0.00    +0.000 C 
ATOM      3  C11 UNL     1      -2.138  -0.364  19.588  0.00  0.00    +0.000 C 
ATOM      4  C12 UNL     1      -1.502  -1.140  20.744  0.00  0.00    +0.000 C 
ATOM      5  F2  UNL     1      -2.196  -2.308  20.895  0.00  0.00    +0.000 F 
ATOM      6  C13 UNL     1      -0.081  -1.504  20.313  0.00  0.00    +0.000 C 
ENDROOT
BRANCH   1  13
ATOM      7  C1  UNL     1       0.878  -4.356  18.755  0.00  0.00    +0.000 C 
ATOM      8  C2  UNL     1       1.558  -3.228  18.026  0.00  0.00    +0.000 C 
ATOM      9  N1  UNL     1       2.693  -3.612  17.387  0.00  0.00    +0.000 NA
ATOM     10  C3  UNL     1       3.369  -2.688  16.690  0.00  0.00    +0.000 C 
ATOM     11  C4  UNL     1       2.965  -1.376  16.594  0.00  0.00    +0.000 C 
ATOM     12  C5  UNL     1       1.797  -0.968  17.254  0.00  0.00    +0.000 C 
ATOM     13  C8  UNL     1       1.046  -1.905  18.000  0.00  0.00    +0.000 C 
BRANCH  12  14
ATOM     14  C6  UNL     1       1.459   0.449  17.101  0.00  0.00    +0.000 C 
ATOM     15  C7  UNL     1       2.047   1.414  17.811  0.00  0.00    +0.000 C 
ATOM     16  F1  UNL     1       2.991   1.164  18.738  0.00  0.00    +0.000 F 
ENDBRANCH  12  14
ENDBRANCH   1  13
BRANCH   6  17
ATOM     17  C14 UNL     1       0.868  -0.434  20.837  0.00  0.00    +0.000 C 
ATOM     18  O1  UNL     1       0.492   0.734  20.973  0.00  0.00    +0.000 OA
BRANCH  17  19
ATOM     19  C15 UNL     1       2.255  -0.847  21.329  0.00  0.00    +0.000 C 
ATOM     20  C16 UNL     1       2.878   0.294  22.126  0.00  0.00    +0.000 C 
ATOM     21  C17 UNL     1       2.262  -2.148  22.118  0.00  0.00    +0.000 C 
ENDBRANCH  17  19
ENDBRANCH   6  17
TORSDOF 4
ENDMDL
