MODEL 1
REMARK VINA RESULT:    -5.839      0.000      0.000
REMARK INTER + INTRA:          -8.255
REMARK INTER:                  -7.546
REMARK INTRA:                  -0.709
REMARK UNBOUND:                -0.709
REMARK  Name = ligantes_geracao2\Derivado_013.pdb
REMARK  8 active torsions:
REMARK  status: ('A' for Active; 'I' for Inactive)
REMARK    1  A    between atoms: C1_1  and  C2_2
REMARK    2  A    between atoms: C2_2  and  C3_3
REMARK    3  A    between atoms: C3_3  and  C4_4
REMARK    4  A    between atoms: C4_4  and  C5_6
REMARK    5  A    between atoms: C6_7  and  C7_8
REMARK    6  A    between atoms: C10_11  and  C11_12
REMARK    7  A    between atoms: C12_13  and  C13_14
REMARK    8  A    between atoms: C16_19  and  C17_20
REMARK                            x       y       z     vdW  Elec       q    Type
REMARK                         _______ _______ _______ _____ _____    ______ ____
ROOT
ATOM      1  C5  UNL     1      21.050  18.865  19.667  0.00  0.00    +0.000 C 
ATOM      2  C6  UNL     1      21.923  18.063  20.648  0.00  0.00    +0.000 C 
ATOM      3  C7  UNL     1      21.732  18.379  22.125  0.00  0.00    +0.000 C 
ATOM      4  C8  UNL     1      23.368  18.241  20.159  0.00  0.00    +0.000 C 
ATOM      5  C9  UNL     1      23.276  18.831  18.745  0.00  0.00    +0.000 C 
ATOM      6  C10 UNL     1      21.804  18.669  18.334  0.00  0.00    +0.000 C 
ENDROOT
BRANCH   6   7
ATOM      7  C11 UNL     1      21.191  19.365  17.124  0.00  0.00    +0.000 C 
ATOM      8  C12 UNL     1      20.108  18.725  16.456  0.00  0.00    +0.000 C 
ATOM      9  C14 UNL     1      19.488  19.305  15.347  0.00  0.00    +0.000 C 
ATOM     10  C15 UNL     1      19.952  20.519  14.913  0.00  0.00    +0.000 C 
ATOM     11  N2  UNL     1      20.968  21.162  15.508  0.00  0.00    +0.000 NA
ATOM     12  C16 UNL     1      21.581  20.603  16.590  0.00  0.00    +0.000 C 
ATOM     13  C17 UNL     1      22.693  21.459  17.115  0.00  0.00    +0.000 C 
BRANCH   8  14
ATOM     14  C13 UNL     1      19.589  17.454  16.882  0.00  0.00    +0.000 C 
ATOM     15  N1  UNL     1      19.155  16.430  17.212  0.00  0.00    +0.000 NA
ENDBRANCH   8  14
ENDBRANCH   6   7
BRANCH   1  16
ATOM     16  C4  UNL     1      20.888  20.342  20.040  0.00  0.00    +0.000 C 
ATOM     17  O1  UNL     1      21.856  21.053  20.305  0.00  0.00    +0.000 OA
BRANCH  16  18
ATOM     18  C3  UNL     1      19.465  20.884  20.024  0.00  0.00    +0.000 C 
BRANCH  18  20
ATOM     19  C1  UNL     1      18.348  21.966  18.022  0.00  0.00    +0.000 C 
ATOM     20  C2  UNL     1      19.299  22.155  19.196  0.00  0.00    +0.000 C 
ENDBRANCH  18  20
ENDBRANCH  16  18
ENDBRANCH   1  16
TORSDOF 5
ENDMDL
MODEL 2
REMARK VINA RESULT:    -5.284     29.550     32.131
REMARK INTER + INTRA:          -7.538
REMARK INTER:                  -6.970
REMARK INTRA:                  -0.568
REMARK UNBOUND:                -0.709
REMARK  Name = ligantes_geracao2\Derivado_013.pdb
REMARK  8 active torsions:
REMARK  status: ('A' for Active; 'I' for Inactive)
REMARK    1  A    between atoms: C1_1  and  C2_2
REMARK    2  A    between atoms: C2_2  and  C3_3
REMARK    3  A    between atoms: C3_3  and  C4_4
REMARK    4  A    between atoms: C4_4  and  C5_6
REMARK    5  A    between atoms: C6_7  and  C7_8
REMARK    6  A    between atoms: C10_11  and  C11_12
REMARK    7  A    between atoms: C12_13  and  C13_14
REMARK    8  A    between atoms: C16_19  and  C17_20
REMARK                            x       y       z     vdW  Elec       q    Type
REMARK                         _______ _______ _______ _____ _____    ______ ____
ROOT
ATOM      1  C5  UNL     1      17.011  -5.070   0.650  0.00  0.00    +0.000 C 
ATOM      2  C6  UNL     1      16.309  -3.812   1.191  0.00  0.00    +0.000 C 
ATOM      3  C7  UNL     1      16.721  -3.366   2.587  0.00  0.00    +0.000 C 
ATOM      4  C8  UNL     1      14.805  -4.081   1.046  0.00  0.00    +0.000 C 
ATOM      5  C9  UNL     1      14.671  -5.303   0.126  0.00  0.00    +0.000 C 
ATOM      6  C10 UNL     1      16.064  -5.497  -0.493  0.00  0.00    +0.000 C 
ENDROOT
BRANCH   6   7
ATOM      7  C11 UNL     1      16.475  -6.755  -1.251  0.00  0.00    +0.000 C 
ATOM      8  C12 UNL     1      17.555  -6.661  -2.174  0.00  0.00    +0.000 C 
ATOM      9  C14 UNL     1      17.997  -7.771  -2.899  0.00  0.00    +0.000 C 
ATOM     10  C15 UNL     1      17.358  -8.966  -2.695  0.00  0.00    +0.000 C 
ATOM     11  N2  UNL     1      16.336  -9.106  -1.837  0.00  0.00    +0.000 NA
ATOM     12  C16 UNL     1      15.897  -8.028  -1.127  0.00  0.00    +0.000 C 
ATOM     13  C17 UNL     1      14.750  -8.373  -0.227  0.00  0.00    +0.000 C 
BRANCH   8  14
ATOM     14  C13 UNL     1      18.255  -5.428  -2.413  0.00  0.00    +0.000 C 
ATOM     15  N1  UNL     1      18.828  -4.440  -2.622  0.00  0.00    +0.000 NA
ENDBRANCH   8  14
ENDBRANCH   6   7
BRANCH   1  16
ATOM     16  C4  UNL     1      17.210  -6.172   1.693  0.00  0.00    +0.000 C 
ATOM     17  O1  UNL     1      16.266  -6.640   2.329  0.00  0.00    +0.000 OA
BRANCH  16  18
ATOM     18  C3  UNL     1      18.635  -6.680   1.868  0.00  0.00    +0.000 C 
BRANCH  18  20
ATOM     19  C1  UNL     1      20.243  -4.742   2.165  0.00  0.00    +0.000 C 
ATOM     20  C2  UNL     1      19.690  -5.793   1.213  0.00  0.00    +0.000 C 
ENDBRANCH  18  20
ENDBRANCH  16  18
ENDBRANCH   1  16
TORSDOF 5
ENDMDL
MODEL 3
REMARK VINA RESULT:    -5.241     23.575     25.908
REMARK INTER + INTRA:          -7.481
REMARK INTER:                  -6.935
REMARK INTRA:                  -0.546
REMARK UNBOUND:                -0.709
REMARK  Name = ligantes_geracao2\Derivado_013.pdb
REMARK  8 active torsions:
REMARK  status: ('A' for Active; 'I' for Inactive)
REMARK    1  A    between atoms: C1_1  and  C2_2
REMARK    2  A    between atoms: C2_2  and  C3_3
REMARK    3  A    between atoms: C3_3  and  C4_4
REMARK    4  A    between atoms: C4_4  and  C5_6
REMARK    5  A    between atoms: C6_7  and  C7_8
REMARK    6  A    between atoms: C10_11  and  C11_12
REMARK    7  A    between atoms: C12_13  and  C13_14
REMARK    8  A    between atoms: C16_19  and  C17_20
REMARK                            x       y       z     vdW  Elec       q    Type
REMARK                         _______ _______ _______ _____ _____    ______ ____
ROOT
ATOM      1  C5  UNL     1       0.993   3.204  18.894  0.00  0.00    +0.000 C 
ATOM      2  C6  UNL     1       1.034   2.876  17.391  0.00  0.00    +0.000 C 
ATOM      3  C7  UNL     1      -0.314   2.792  16.689  0.00  0.00    +0.000 C 
ATOM      4  C8  UNL     1       1.877   1.599  17.268  0.00  0.00    +0.000 C 
ATOM      5  C9  UNL     1       2.582   1.414  18.619  0.00  0.00    +0.000 C 
ATOM      6  C10 UNL     1       2.394   2.747  19.360  0.00  0.00    +0.000 C 
ENDROOT
BRANCH   6   7
ATOM      7  C11 UNL     1       2.683   2.928  20.846  0.00  0.00    +0.000 C 
ATOM      8  C12 UNL     1       2.832   4.253  21.346  0.00  0.00    +0.000 C 
ATOM      9  C14 UNL     1       3.088   4.501  22.697  0.00  0.00    +0.000 C 
ATOM     10  C15 UNL     1       3.193   3.423  23.538  0.00  0.00    +0.000 C 
ATOM     11  N2  UNL     1       3.060   2.157  23.115  0.00  0.00    +0.000 NA
ATOM     12  C16 UNL     1       2.812   1.906  21.799  0.00  0.00    +0.000 C 
ATOM     13  C17 UNL     1       2.701   0.439  21.514  0.00  0.00    +0.000 C 
BRANCH   8  14
ATOM     14  C13 UNL     1       2.724   5.409  20.498  0.00  0.00    +0.000 C 
ATOM     15  N1  UNL     1       2.643   6.354  19.829  0.00  0.00    +0.000 NA
ENDBRANCH   8  14
ENDBRANCH   6   7
BRANCH   1  16
ATOM     16  C4  UNL     1      -0.137   2.505  19.655  0.00  0.00    +0.000 C 
ATOM     17  O1  UNL     1      -0.154   1.285  19.814  0.00  0.00    +0.000 OA
BRANCH  16  18
ATOM     18  C3  UNL     1      -1.215   3.412  20.235  0.00  0.00    +0.000 C 
BRANCH  18  20
ATOM     19  C1  UNL     1      -1.044   5.709  21.293  0.00  0.00    +0.000 C 
ATOM     20  C2  UNL     1      -0.957   4.898  20.007  0.00  0.00    +0.000 C 
ENDBRANCH  18  20
ENDBRANCH  16  18
ENDBRANCH   1  16
TORSDOF 5
ENDMDL
MODEL 4
REMARK VINA RESULT:    -5.240     29.571     31.853
REMARK INTER + INTRA:          -7.481
REMARK INTER:                  -6.775
REMARK INTRA:                  -0.706
REMARK UNBOUND:                -0.709
REMARK  Name = ligantes_geracao2\Derivado_013.pdb
REMARK  8 active torsions:
REMARK  status: ('A' for Active; 'I' for Inactive)
REMARK    1  A    between atoms: C1_1  and  C2_2
REMARK    2  A    between atoms: C2_2  and  C3_3
REMARK    3  A    between atoms: C3_3  and  C4_4
REMARK    4  A    between atoms: C4_4  and  C5_6
REMARK    5  A    between atoms: C6_7  and  C7_8
REMARK    6  A    between atoms: C10_11  and  C11_12
REMARK    7  A    between atoms: C12_13  and  C13_14
REMARK    8  A    between atoms: C16_19  and  C17_20
REMARK                            x       y       z     vdW  Elec       q    Type
REMARK                         _______ _______ _______ _____ _____    ______ ____
ROOT
ATOM      1  C5  UNL     1      16.785  -5.881   0.132  0.00  0.00    +0.000 C 
ATOM      2  C6  UNL     1      15.680  -4.825  -0.047  0.00  0.00    +0.000 C 
ATOM      3  C7  UNL     1      15.356  -4.435  -1.482  0.00  0.00    +0.000 C 
ATOM      4  C8  UNL     1      16.091  -3.641   0.839  0.00  0.00    +0.000 C 
ATOM      5  C9  UNL     1      17.206  -4.154   1.760  0.00  0.00    +0.000 C 
ATOM      6  C10 UNL     1      17.178  -5.684   1.613  0.00  0.00    +0.000 C 
ENDROOT
BRANCH   6   7
ATOM      7  C11 UNL     1      18.289  -6.595   2.124  0.00  0.00    +0.000 C 
ATOM      8  C12 UNL     1      17.962  -7.944   2.441  0.00  0.00    +0.000 C 
ATOM      9  C14 UNL     1      18.927  -8.842   2.904  0.00  0.00    +0.000 C 
ATOM     10  C15 UNL     1      20.211  -8.386   3.048  0.00  0.00    +0.000 C 
ATOM     11  N2  UNL     1      20.570  -7.125   2.762  0.00  0.00    +0.000 NA
ATOM     12  C16 UNL     1      19.635  -6.242   2.311  0.00  0.00    +0.000 C 
ATOM     13  C17 UNL     1      20.217  -4.886   2.052  0.00  0.00    +0.000 C 
BRANCH   8  14
ATOM     14  C13 UNL     1      16.628  -8.462   2.300  0.00  0.00    +0.000 C 
ATOM     15  N1  UNL     1      15.559  -8.896   2.175  0.00  0.00    +0.000 NA
ENDBRANCH   8  14
ENDBRANCH   6   7
BRANCH   1  16
ATOM     16  C4  UNL     1      17.972  -5.710  -0.820  0.00  0.00    +0.000 C 
ATOM     17  O1  UNL     1      18.625  -4.668  -0.862  0.00  0.00    +0.000 OA
BRANCH  16  18
ATOM     18  C3  UNL     1      18.320  -6.917  -1.681  0.00  0.00    +0.000 C 
BRANCH  18  20
ATOM     19  C1  UNL     1      17.834  -9.340  -1.112  0.00  0.00    +0.000 C 
ATOM     20  C2  UNL     1      17.272  -8.026  -1.638  0.00  0.00    +0.000 C 
ENDBRANCH  18  20
ENDBRANCH  16  18
ENDBRANCH   1  16
TORSDOF 5
ENDMDL
MODEL 5
REMARK VINA RESULT:    -5.231     26.127     28.562
REMARK INTER + INTRA:          -7.469
REMARK INTER:                  -7.168
REMARK INTRA:                  -0.301
REMARK UNBOUND:                -0.709
REMARK  Name = ligantes_geracao2\Derivado_013.pdb
REMARK  8 active torsions:
REMARK  status: ('A' for Active; 'I' for Inactive)
REMARK    1  A    between atoms: C1_1  and  C2_2
REMARK    2  A    between atoms: C2_2  and  C3_3
REMARK    3  A    between atoms: C3_3  and  C4_4
REMARK    4  A    between atoms: C4_4  and  C5_6
REMARK    5  A    between atoms: C6_7  and  C7_8
REMARK    6  A    between atoms: C10_11  and  C11_12
REMARK    7  A    between atoms: C12_13  and  C13_14
REMARK    8  A    between atoms: C16_19  and  C17_20
REMARK                            x       y       z     vdW  Elec       q    Type
REMARK                         _______ _______ _______ _____ _____    ______ ____
ROOT
ATOM      1  C5  UNL     1       0.260  -1.293  19.792  0.00  0.00    +0.000 C 
ATOM      2  C6  UNL     1      -1.157  -1.892  19.796  0.00  0.00    +0.000 C 
ATOM      3  C7  UNL     1      -1.500  -2.806  18.628  0.00  0.00    +0.000 C 
ATOM      4  C8  UNL     1      -2.111  -0.698  19.948  0.00  0.00    +0.000 C 
ATOM      5  C9  UNL     1      -1.245   0.497  20.371  0.00  0.00    +0.000 C 
ATOM      6  C10 UNL     1       0.110  -0.108  20.771  0.00  0.00    +0.000 C 
ENDROOT
BRANCH   6   7
ATOM      7  C11 UNL     1       1.368   0.726  20.990  0.00  0.00    +0.000 C 
ATOM      8  C12 UNL     1       2.462   0.127  21.677  0.00  0.00    +0.000 C 
ATOM      9  C14 UNL     1       3.651   0.823  21.908  0.00  0.00    +0.000 C 
ATOM     10  C15 UNL     1       3.739   2.112  21.449  0.00  0.00    +0.000 C 
ATOM     11  N2  UNL     1       2.738   2.719  20.796  0.00  0.00    +0.000 NA
ATOM     12  C16 UNL     1       1.573   2.049  20.569  0.00  0.00    +0.000 C 
ATOM     13  C17 UNL     1       0.572   2.887  19.834  0.00  0.00    +0.000 C 
BRANCH   8  14
ATOM     14  C13 UNL     1       2.411  -1.223  22.170  0.00  0.00    +0.000 C 
ATOM     15  N1  UNL     1       2.360  -2.306  22.584  0.00  0.00    +0.000 NA
ENDBRANCH   8  14
ENDBRANCH   6   7
BRANCH   1  16
ATOM     16  C4  UNL     1       0.750  -0.856  18.408  0.00  0.00    +0.000 C 
ATOM     17  O1  UNL     1       0.253   0.104  17.819  0.00  0.00    +0.000 OA
BRANCH  16  18
ATOM     18  C3  UNL     1       1.909  -1.652  17.825  0.00  0.00    +0.000 C 
BRANCH  18  20
ATOM     19  C1  UNL     1       3.104  -3.889  17.810  0.00  0.00    +0.000 C 
ATOM     20  C2  UNL     1       2.243  -2.919  18.608  0.00  0.00    +0.000 C 
ENDBRANCH  18  20
ENDBRANCH  16  18
ENDBRANCH   1  16
TORSDOF 5
ENDMDL
MODEL 6
REMARK VINA RESULT:    -5.194     25.651     28.055
REMARK INTER + INTRA:          -7.422
REMARK INTER:                  -6.817
REMARK INTRA:                  -0.605
REMARK UNBOUND:                -0.709
REMARK  Name = ligantes_geracao2\Derivado_013.pdb
REMARK  8 active torsions:
REMARK  status: ('A' for Active; 'I' for Inactive)
REMARK    1  A    between atoms: C1_1  and  C2_2
REMARK    2  A    between atoms: C2_2  and  C3_3
REMARK    3  A    between atoms: C3_3  and  C4_4
REMARK    4  A    between atoms: C4_4  and  C5_6
REMARK    5  A    between atoms: C6_7  and  C7_8
REMARK    6  A    between atoms: C10_11  and  C11_12
REMARK    7  A    between atoms: C12_13  and  C13_14
REMARK    8  A    between atoms: C16_19  and  C17_20
REMARK                            x       y       z     vdW  Elec       q    Type
REMARK                         _______ _______ _______ _____ _____    ______ ____
ROOT
ATOM      1  C5  UNL     1       0.628   2.128  20.054  0.00  0.00    +0.000 C 
ATOM      2  C6  UNL     1       0.940   3.492  19.412  0.00  0.00    +0.000 C 
ATOM      3  C7  UNL     1      -0.263   4.354  19.058  0.00  0.00    +0.000 C 
ATOM      4  C8  UNL     1       1.858   3.189  18.219  0.00  0.00    +0.000 C 
ATOM      5  C9  UNL     1       2.333   1.740  18.396  0.00  0.00    +0.000 C 
ATOM      6  C10 UNL     1       1.952   1.362  19.836  0.00  0.00    +0.000 C 
ENDROOT
BRANCH   6   7
ATOM      7  C11 UNL     1       1.976  -0.069  20.361  0.00  0.00    +0.000 C 
ATOM      8  C12 UNL     1       2.303  -0.279  21.731  0.00  0.00    +0.000 C 
ATOM      9  C14 UNL     1       2.336  -1.559  22.288  0.00  0.00    +0.000 C 
ATOM     10  C15 UNL     1       2.041  -2.621  21.473  0.00  0.00    +0.000 C 
ATOM     11  N2  UNL     1       1.726  -2.476  20.177  0.00  0.00    +0.000 NA
ATOM     12  C16 UNL     1       1.693  -1.231  19.625  0.00  0.00    +0.000 C 
ATOM     13  C17 UNL     1       1.329  -1.266  18.172  0.00  0.00    +0.000 C 
BRANCH   8  14
ATOM     14  C13 UNL     1       2.615   0.809  22.619  0.00  0.00    +0.000 C 
ATOM     15  N1  UNL     1       2.871   1.672  23.350  0.00  0.00    +0.000 NA
ENDBRANCH   8  14
ENDBRANCH   6   7
BRANCH   1  16
ATOM     16  C4  UNL     1      -0.576   1.410  19.440  0.00  0.00    +0.000 C 
ATOM     17  O1  UNL     1      -0.749   1.359  18.222  0.00  0.00    +0.000 OA
BRANCH  16  18
ATOM     18  C3  UNL     1      -1.524   0.732  20.421  0.00  0.00    +0.000 C 
BRANCH  18  20
ATOM     19  C1  UNL     1      -1.713  -1.719  21.040  0.00  0.00    +0.000 C 
ATOM     20  C2  UNL     1      -1.976  -0.657  19.981  0.00  0.00    +0.000 C 
ENDBRANCH  18  20
ENDBRANCH  16  18
ENDBRANCH   1  16
TORSDOF 5
ENDMDL
MODEL 7
REMARK VINA RESULT:    -5.100     27.541     29.595
REMARK INTER + INTRA:          -7.300
REMARK INTER:                  -6.663
REMARK INTRA:                  -0.637
REMARK UNBOUND:                -0.709
REMARK  Name = ligantes_geracao2\Derivado_013.pdb
REMARK  8 active torsions:
REMARK  status: ('A' for Active; 'I' for Inactive)
REMARK    1  A    between atoms: C1_1  and  C2_2
REMARK    2  A    between atoms: C2_2  and  C3_3
REMARK    3  A    between atoms: C3_3  and  C4_4
REMARK    4  A    between atoms: C4_4  and  C5_6
REMARK    5  A    between atoms: C6_7  and  C7_8
REMARK    6  A    between atoms: C10_11  and  C11_12
REMARK    7  A    between atoms: C12_13  and  C13_14
REMARK    8  A    between atoms: C16_19  and  C17_20
REMARK                            x       y       z     vdW  Elec       q    Type
REMARK                         _______ _______ _______ _____ _____    ______ ____
ROOT
ATOM      1  C5  UNL     1       1.461  -1.712  20.066  0.00  0.00    +0.000 C 
ATOM      2  C6  UNL     1       1.943  -1.234  21.447  0.00  0.00    +0.000 C 
ATOM      3  C7  UNL     1       2.626  -2.280  22.316  0.00  0.00    +0.000 C 
ATOM      4  C8  UNL     1       0.721  -0.581  22.109  0.00  0.00    +0.000 C 
ATOM      5  C9  UNL     1      -0.319  -0.383  20.998  0.00  0.00    +0.000 C 
ATOM      6  C10 UNL     1       0.443  -0.615  19.684  0.00  0.00    +0.000 C 
ENDROOT
BRANCH   6   7
ATOM      7  C11 UNL     1      -0.246  -0.799  18.337  0.00  0.00    +0.000 C 
ATOM      8  C12 UNL     1       0.450  -0.392  17.163  0.00  0.00    +0.000 C 
ATOM      9  C14 UNL     1      -0.111  -0.537  15.892  0.00  0.00    +0.000 C 
ATOM     10  C15 UNL     1      -1.363  -1.089  15.802  0.00  0.00    +0.000 C 
ATOM     11  N2  UNL     1      -2.058  -1.488  16.877  0.00  0.00    +0.000 NA
ATOM     12  C16 UNL     1      -1.520  -1.348  18.121  0.00  0.00    +0.000 C 
ATOM     13  C17 UNL     1      -2.441  -1.842  19.195  0.00  0.00    +0.000 C 
BRANCH   8  14
ATOM     14  C13 UNL     1       1.766   0.186  17.214  0.00  0.00    +0.000 C 
ATOM     15  N1  UNL     1       2.828   0.653  17.235  0.00  0.00    +0.000 NA
ENDBRANCH   8  14
ENDBRANCH   6   7
BRANCH   1  16
ATOM     16  C4  UNL     1       0.842  -3.113  20.072  0.00  0.00    +0.000 C 
ATOM     17  O1  UNL     1       0.032  -3.460  20.931  0.00  0.00    +0.000 OA
BRANCH  16  18
ATOM     18  C3  UNL     1       1.257  -4.033  18.932  0.00  0.00    +0.000 C 
BRANCH  18  20
ATOM     19  C1  UNL     1       2.908  -3.401  17.114  0.00  0.00    +0.000 C 
ATOM     20  C2  UNL     1       2.726  -3.905  18.540  0.00  0.00    +0.000 C 
ENDBRANCH  18  20
ENDBRANCH  16  18
ENDBRANCH   1  16
TORSDOF 5
ENDMDL
MODEL 8
REMARK VINA RESULT:    -5.094     26.619     28.953
REMARK INTER + INTRA:          -7.292
REMARK INTER:                  -6.548
REMARK INTRA:                  -0.745
REMARK UNBOUND:                -0.709
REMARK  Name = ligantes_geracao2\Derivado_013.pdb
REMARK  8 active torsions:
REMARK  status: ('A' for Active; 'I' for Inactive)
REMARK    1  A    between atoms: C1_1  and  C2_2
REMARK    2  A    between atoms: C2_2  and  C3_3
REMARK    3  A    between atoms: C3_3  and  C4_4
REMARK    4  A    between atoms: C4_4  and  C5_6
REMARK    5  A    between atoms: C6_7  and  C7_8
REMARK    6  A    between atoms: C10_11  and  C11_12
REMARK    7  A    between atoms: C12_13  and  C13_14
REMARK    8  A    between atoms: C16_19  and  C17_20
REMARK                            x       y       z     vdW  Elec       q    Type
REMARK                         _______ _______ _______ _____ _____    ______ ____
ROOT
ATOM      1  C5  UNL     1       0.024  -1.626  19.121  0.00  0.00    +0.000 C 
ATOM      2  C6  UNL     1      -0.045  -2.828  18.161  0.00  0.00    +0.000 C 
ATOM      3  C7  UNL     1      -1.411  -3.481  18.006  0.00  0.00    +0.000 C 
ATOM      4  C8  UNL     1       1.055  -3.793  18.627  0.00  0.00    +0.000 C 
ATOM      5  C9  UNL     1       1.945  -3.001  19.595  0.00  0.00    +0.000 C 
ATOM      6  C10 UNL     1       1.539  -1.531  19.406  0.00  0.00    +0.000 C 
ENDROOT
BRANCH   6   7
ATOM      7  C11 UNL     1       1.959  -0.418  20.359  0.00  0.00    +0.000 C 
ATOM      8  C12 UNL     1       2.016   0.914  19.857  0.00  0.00    +0.000 C 
ATOM      9  C14 UNL     1       2.382   1.988  20.670  0.00  0.00    +0.000 C 
ATOM     10  C15 UNL     1       2.688   1.726  21.981  0.00  0.00    +0.000 C 
ATOM     11  N2  UNL     1       2.648   0.491  22.502  0.00  0.00    +0.000 NA
ATOM     12  C16 UNL     1       2.294  -0.564  21.715  0.00  0.00    +0.000 C 
ATOM     13  C17 UNL     1       2.312  -1.861  22.465  0.00  0.00    +0.000 C 
BRANCH   8  14
ATOM     14  C13 UNL     1       1.699   1.231  18.490  0.00  0.00    +0.000 C 
ATOM     15  N1  UNL     1       1.431   1.469  17.387  0.00  0.00    +0.000 NA
ENDBRANCH   8  14
ENDBRANCH   6   7
BRANCH   1  16
ATOM     16  C4  UNL     1      -0.806  -1.797  20.396  0.00  0.00    +0.000 C 
ATOM     17  O1  UNL     1      -0.664  -2.770  21.136  0.00  0.00    +0.000 OA
BRANCH  16  18
ATOM     18  C3  UNL     1      -1.786  -0.675  20.712  0.00  0.00    +0.000 C 
BRANCH  18  20
ATOM     19  C1  UNL     1      -1.609   1.767  20.056  0.00  0.00    +0.000 C 
ATOM     20  C2  UNL     1      -1.929   0.352  19.594  0.00  0.00    +0.000 C 
ENDBRANCH  18  20
ENDBRANCH  16  18
ENDBRANCH   1  16
TORSDOF 5
ENDMDL
MODEL 9
REMARK VINA RESULT:    -5.013     26.109     28.582
REMARK INTER + INTRA:          -7.187
REMARK INTER:                  -6.510
REMARK INTRA:                  -0.677
REMARK UNBOUND:                -0.709
REMARK  Name = ligantes_geracao2\Derivado_013.pdb
REMARK  8 active torsions:
REMARK  status: ('A' for Active; 'I' for Inactive)
REMARK    1  A    between atoms: C1_1  and  C2_2
REMARK    2  A    between atoms: C2_2  and  C3_3
REMARK    3  A    between atoms: C3_3  and  C4_4
REMARK    4  A    between atoms: C4_4  and  C5_6
REMARK    5  A    between atoms: C6_7  and  C7_8
REMARK    6  A    between atoms: C10_11  and  C11_12
REMARK    7  A    between atoms: C12_13  and  C13_14
REMARK    8  A    between atoms: C16_19  and  C17_20
REMARK                            x       y       z     vdW  Elec       q    Type
REMARK                         _______ _______ _______ _____ _____    ______ ____
ROOT
ATOM      1  C5  UNL     1       1.763   0.916  18.475  0.00  0.00    +0.000 C 
ATOM      2  C6  UNL     1       1.667   2.187  17.613  0.00  0.00    +0.000 C 
ATOM      3  C7  UNL     1       2.158   3.473  18.261  0.00  0.00    +0.000 C 
ATOM      4  C8  UNL     1       0.210   2.252  17.133  0.00  0.00    +0.000 C 
ATOM      5  C9  UNL     1      -0.404   0.876  17.424  0.00  0.00    +0.000 C 
ATOM      6  C10 UNL     1       0.788  -0.037  17.750  0.00  0.00    +0.000 C 
ENDROOT
BRANCH   6   7
ATOM      7  C11 UNL     1       0.637  -1.421  18.373  0.00  0.00    +0.000 C 
ATOM      8  C12 UNL     1       1.591  -2.421  18.030  0.00  0.00    +0.000 C 
ATOM      9  C14 UNL     1       1.525  -3.709  18.568  0.00  0.00    +0.000 C 
ATOM     10  C15 UNL     1       0.509  -3.988  19.444  0.00  0.00    +0.000 C 
ATOM     11  N2  UNL     1      -0.412  -3.080  19.799  0.00  0.00    +0.000 NA
ATOM     12  C16 UNL     1      -0.358  -1.822  19.278  0.00  0.00    +0.000 C 
ATOM     13  C17 UNL     1      -1.468  -0.952  19.784  0.00  0.00    +0.000 C 
BRANCH   8  14
ATOM     14  C13 UNL     1       2.674  -2.167  17.119  0.00  0.00    +0.000 C 
ATOM     15  N1  UNL     1       3.557  -1.980  16.390  0.00  0.00    +0.000 NA
ENDBRANCH   8  14
ENDBRANCH   6   7
BRANCH   1  16
ATOM     16  C4  UNL     1       1.395   1.130  19.946  0.00  0.00    +0.000 C 
ATOM     17  O1  UNL     1       0.379   1.740  20.277  0.00  0.00    +0.000 OA
BRANCH  16  18
ATOM     18  C3  UNL     1       2.337   0.510  20.969  0.00  0.00    +0.000 C 
BRANCH  18  20
ATOM     19  C1  UNL     1       2.252  -1.796  22.020  0.00  0.00    +0.000 C 
ATOM     20  C2  UNL     1       1.640  -0.402  21.975  0.00  0.00    +0.000 C 
ENDBRANCH  18  20
ENDBRANCH  16  18
ENDBRANCH   1  16
TORSDOF 5
ENDMDL
