MODEL 1
REMARK VINA RESULT:    -8.650      0.000      0.000
REMARK INTER + INTRA:         -12.441
REMARK INTER:                 -11.178
REMARK INTRA:                  -1.263
REMARK UNBOUND:                -1.263
REMARK  Name = ligantes_geracao2\Derivado_012.pdb
REMARK  8 active torsions:
REMARK  status: ('A' for Active; 'I' for Inactive)
REMARK    1  A    between atoms: C1_1  and  C2_2
REMARK    2  A    between atoms: C2_2  and  C3_3
REMARK    3  A    between atoms: C3_3  and  C4_4
REMARK    4  A    between atoms: C3_3  and  C5_5
REMARK    5  A    between atoms: C5_5  and  C6_7
REMARK    6  A    between atoms: C7_8  and  C8_9
REMARK    7  A    between atoms: C11_12  and  C12_13
REMARK    8  A    between atoms: C16_18  and  C17_19
REMARK                            x       y       z     vdW  Elec       q    Type
REMARK                         _______ _______ _______ _____ _____    ______ ____
ROOT
ATOM      1  C6  UNL     1       3.507  66.812  66.448  0.00  0.00    +0.000 C 
ATOM      2  C7  UNL     1       3.935  67.004  67.908  0.00  0.00    +0.000 C 
ATOM      3  C8  UNL     1       3.742  65.757  68.762  0.00  0.00    +0.000 C 
ATOM      4  C9  UNL     1       3.043  68.155  68.369  0.00  0.00    +0.000 C 
ATOM      5  C10 UNL     1       3.079  69.122  67.193  0.00  0.00    +0.000 C 
ATOM      6  C11 UNL     1       3.216  68.244  65.931  0.00  0.00    +0.000 C 
ENDROOT
BRANCH   6   7
ATOM      7  C12 UNL     1       2.008  68.292  65.010  0.00  0.00    +0.000 C 
ATOM      8  C13 UNL     1       0.715  68.163  65.513  0.00  0.00    +0.000 C 
ATOM      9  N1  UNL     1      -0.409  68.172  64.764  0.00  0.00    +0.000 NA
ATOM     10  C14 UNL     1      -0.259  68.301  63.433  0.00  0.00    +0.000 C 
ATOM     11  C15 UNL     1       0.971  68.429  62.817  0.00  0.00    +0.000 C 
ATOM     12  C16 UNL     1       2.119  68.426  63.613  0.00  0.00    +0.000 C 
BRANCH  12  13
ATOM     13  C17 UNL     1       3.389  68.579  62.960  0.00  0.00    +0.000 C 
ATOM     14  N2  UNL     1       4.411  68.744  62.434  0.00  0.00    +0.000 NA
ENDBRANCH  12  13
ENDBRANCH   6   7
BRANCH   1  15
ATOM     15  C5  UNL     1       4.468  66.086  65.504  0.00  0.00    +0.000 C 
ATOM     16  O1  UNL     1       5.682  66.260  65.657  0.00  0.00    +0.000 OA
BRANCH  15  17
ATOM     17  C3  UNL     1       3.941  65.107  64.454  0.00  0.00    +0.000 C 
ATOM     18  C4  UNL     1       3.536  63.803  65.138  0.00  0.00    +0.000 C 
BRANCH  17  20
ATOM     19  C1  UNL     1       5.029  63.356  62.954  0.00  0.00    +0.000 C 
ATOM     20  C2  UNL     1       4.993  64.824  63.364  0.00  0.00    +0.000 C 
ENDBRANCH  17  20
ENDBRANCH  15  17
ENDBRANCH   1  15
TORSDOF 5
ENDMDL
MODEL 2
REMARK VINA RESULT:    -8.628      2.540      5.316
REMARK INTER + INTRA:         -12.413
REMARK INTER:                 -10.972
REMARK INTRA:                  -1.441
REMARK UNBOUND:                -1.263
REMARK  Name = ligantes_geracao2\Derivado_012.pdb
REMARK  8 active torsions:
REMARK  status: ('A' for Active; 'I' for Inactive)
REMARK    1  A    between atoms: C1_1  and  C2_2
REMARK    2  A    between atoms: C2_2  and  C3_3
REMARK    3  A    between atoms: C3_3  and  C4_4
REMARK    4  A    between atoms: C3_3  and  C5_5
REMARK    5  A    between atoms: C5_5  and  C6_7
REMARK    6  A    between atoms: C7_8  and  C8_9
REMARK    7  A    between atoms: C11_12  and  C12_13
REMARK    8  A    between atoms: C16_18  and  C17_19
REMARK                            x       y       z     vdW  Elec       q    Type
REMARK                         _______ _______ _______ _____ _____    ______ ____
ROOT
ATOM      1  C6  UNL     1       3.355  67.503  63.860  0.00  0.00    +0.000 C 
ATOM      2  C7  UNL     1       4.005  68.162  62.637  0.00  0.00    +0.000 C 
ATOM      3  C8  UNL     1       4.240  67.194  61.484  0.00  0.00    +0.000 C 
ATOM      4  C9  UNL     1       5.315  68.703  63.205  0.00  0.00    +0.000 C 
ATOM      5  C10 UNL     1       4.901  69.297  64.545  0.00  0.00    +0.000 C 
ATOM      6  C11 UNL     1       3.736  68.421  65.051  0.00  0.00    +0.000 C 
ENDROOT
BRANCH   6   7
ATOM      7  C12 UNL     1       4.055  67.632  66.310  0.00  0.00    +0.000 C 
ATOM      8  C13 UNL     1       5.041  66.647  66.309  0.00  0.00    +0.000 C 
ATOM      9  N1  UNL     1       5.372  65.887  67.376  0.00  0.00    +0.000 NA
ATOM     10  C14 UNL     1       4.684  66.092  68.513  0.00  0.00    +0.000 C 
ATOM     11  C15 UNL     1       3.680  67.033  68.635  0.00  0.00    +0.000 C 
ATOM     12  C16 UNL     1       3.361  67.814  67.521  0.00  0.00    +0.000 C 
BRANCH  12  13
ATOM     13  C17 UNL     1       2.328  68.802  67.667  0.00  0.00    +0.000 C 
ATOM     14  N2  UNL     1       1.490  69.602  67.744  0.00  0.00    +0.000 NA
ENDBRANCH  12  13
ENDBRANCH   6   7
BRANCH   1  15
ATOM     15  C5  UNL     1       1.846  67.258  63.832  0.00  0.00    +0.000 C 
ATOM     16  O1  UNL     1       1.431  66.127  64.110  0.00  0.00    +0.000 OA
BRANCH  15  17
ATOM     17  C3  UNL     1       0.873  68.405  63.551  0.00  0.00    +0.000 C 
ATOM     18  C4  UNL     1      -0.218  68.414  64.619  0.00  0.00    +0.000 C 
BRANCH  17  20
ATOM     19  C1  UNL     1       0.816  69.279  61.157  0.00  0.00    +0.000 C 
ATOM     20  C2  UNL     1       0.239  68.279  62.152  0.00  0.00    +0.000 C 
ENDBRANCH  17  20
ENDBRANCH  15  17
ENDBRANCH   1  15
TORSDOF 5
ENDMDL
MODEL 3
REMARK VINA RESULT:    -7.897      2.009      2.949
REMARK INTER + INTRA:         -11.468
REMARK INTER:                 -10.135
REMARK INTRA:                  -1.334
REMARK UNBOUND:                -1.263
REMARK  Name = ligantes_geracao2\Derivado_012.pdb
REMARK  8 active torsions:
REMARK  status: ('A' for Active; 'I' for Inactive)
REMARK    1  A    between atoms: C1_1  and  C2_2
REMARK    2  A    between atoms: C2_2  and  C3_3
REMARK    3  A    between atoms: C3_3  and  C4_4
REMARK    4  A    between atoms: C3_3  and  C5_5
REMARK    5  A    between atoms: C5_5  and  C6_7
REMARK    6  A    between atoms: C7_8  and  C8_9
REMARK    7  A    between atoms: C11_12  and  C12_13
REMARK    8  A    between atoms: C16_18  and  C17_19
REMARK                            x       y       z     vdW  Elec       q    Type
REMARK                         _______ _______ _______ _____ _____    ______ ____
ROOT
ATOM      1  C6  UNL     1       2.821  66.687  66.100  0.00  0.00    +0.000 C 
ATOM      2  C7  UNL     1       4.152  67.049  66.769  0.00  0.00    +0.000 C 
ATOM      3  C8  UNL     1       4.974  65.832  67.175  0.00  0.00    +0.000 C 
ATOM      4  C9  UNL     1       3.707  67.868  67.979  0.00  0.00    +0.000 C 
ATOM      5  C10 UNL     1       2.608  68.760  67.417  0.00  0.00    +0.000 C 
ATOM      6  C11 UNL     1       1.923  67.935  66.306  0.00  0.00    +0.000 C 
ENDROOT
BRANCH   6   7
ATOM      7  C12 UNL     1       0.481  67.566  66.609  0.00  0.00    +0.000 C 
ATOM      8  C13 UNL     1       0.116  67.056  67.854  0.00  0.00    +0.000 C 
ATOM      9  N1  UNL     1      -1.136  66.683  68.198  0.00  0.00    +0.000 NA
ATOM     10  C14 UNL     1      -2.092  66.803  67.259  0.00  0.00    +0.000 C 
ATOM     11  C15 UNL     1      -1.852  67.288  65.988  0.00  0.00    +0.000 C 
ATOM     12  C16 UNL     1      -0.550  67.675  65.658  0.00  0.00    +0.000 C 
BRANCH  12  13
ATOM     13  C17 UNL     1      -0.319  68.195  64.339  0.00  0.00    +0.000 C 
ATOM     14  N2  UNL     1      -0.168  68.636  63.276  0.00  0.00    +0.000 NA
ENDBRANCH  12  13
ENDBRANCH   6   7
BRANCH   1  15
ATOM     15  C5  UNL     1       2.840  66.279  64.626  0.00  0.00    +0.000 C 
ATOM     16  O1  UNL     1       1.909  65.588  64.197  0.00  0.00    +0.000 OA
BRANCH  15  17
ATOM     17  C3  UNL     1       3.940  66.784  63.689  0.00  0.00    +0.000 C 
ATOM     18  C4  UNL     1       3.419  67.984  62.902  0.00  0.00    +0.000 C 
BRANCH  17  20
ATOM     19  C1  UNL     1       4.866  64.422  63.445  0.00  0.00    +0.000 C 
ATOM     20  C2  UNL     1       4.408  65.682  62.720  0.00  0.00    +0.000 C 
ENDBRANCH  17  20
ENDBRANCH  15  17
ENDBRANCH   1  15
TORSDOF 5
ENDMDL
MODEL 4
REMARK VINA RESULT:    -7.875      5.375      8.068
REMARK INTER + INTRA:         -11.439
REMARK INTER:                 -10.086
REMARK INTRA:                  -1.353
REMARK UNBOUND:                -1.263
REMARK  Name = ligantes_geracao2\Derivado_012.pdb
REMARK  8 active torsions:
REMARK  status: ('A' for Active; 'I' for Inactive)
REMARK    1  A    between atoms: C1_1  and  C2_2
REMARK    2  A    between atoms: C2_2  and  C3_3
REMARK    3  A    between atoms: C3_3  and  C4_4
REMARK    4  A    between atoms: C3_3  and  C5_5
REMARK    5  A    between atoms: C5_5  and  C6_7
REMARK    6  A    between atoms: C7_8  and  C8_9
REMARK    7  A    between atoms: C11_12  and  C12_13
REMARK    8  A    between atoms: C16_18  and  C17_19
REMARK                            x       y       z     vdW  Elec       q    Type
REMARK                         _______ _______ _______ _____ _____    ______ ____
ROOT
ATOM      1  C6  UNL     1       2.502  61.773  70.886  0.00  0.00    +0.000 C 
ATOM      2  C7  UNL     1       2.292  60.314  70.463  0.00  0.00    +0.000 C 
ATOM      3  C8  UNL     1       3.112  59.324  71.282  0.00  0.00    +0.000 C 
ATOM      4  C9  UNL     1       2.712  60.327  68.995  0.00  0.00    +0.000 C 
ATOM      5  C10 UNL     1       2.090  61.610  68.460  0.00  0.00    +0.000 C 
ATOM      6  C11 UNL     1       2.102  62.605  69.640  0.00  0.00    +0.000 C 
ENDROOT
BRANCH   6   7
ATOM      7  C12 UNL     1       3.010  63.805  69.430  0.00  0.00    +0.000 C 
ATOM      8  C13 UNL     1       4.392  63.650  69.335  0.00  0.00    +0.000 C 
ATOM      9  N1  UNL     1       5.272  64.663  69.170  0.00  0.00    +0.000 NA
ATOM     10  C14 UNL     1       4.769  65.909  69.110  0.00  0.00    +0.000 C 
ATOM     11  C15 UNL     1       3.419  66.189  69.199  0.00  0.00    +0.000 C 
ATOM     12  C16 UNL     1       2.528  65.125  69.360  0.00  0.00    +0.000 C 
BRANCH  12  13
ATOM     13  C17 UNL     1       1.126  65.429  69.432  0.00  0.00    +0.000 C 
ATOM     14  N2  UNL     1       0.001  65.712  69.475  0.00  0.00    +0.000 NA
ENDBRANCH  12  13
ENDBRANCH   6   7
BRANCH   1  15
ATOM     15  C5  UNL     1       1.766  62.278  72.128  0.00  0.00    +0.000 C 
ATOM     16  O1  UNL     1       2.290  62.097  73.233  0.00  0.00    +0.000 OA
BRANCH  15  17
ATOM     17  C3  UNL     1       0.458  63.060  71.997  0.00  0.00    +0.000 C 
ATOM     18  C4  UNL     1       0.115  63.699  73.341  0.00  0.00    +0.000 C 
BRANCH  17  20
ATOM     19  C1  UNL     1      -0.794  60.868  72.346  0.00  0.00    +0.000 C 
ATOM     20  C2  UNL     1      -0.700  62.155  71.535  0.00  0.00    +0.000 C 
ENDBRANCH  17  20
ENDBRANCH  15  17
ENDBRANCH   1  15
TORSDOF 5
ENDMDL
MODEL 5
REMARK VINA RESULT:    -7.019      5.710      8.417
REMARK INTER + INTRA:         -10.334
REMARK INTER:                 -10.173
REMARK INTRA:                  -0.161
REMARK UNBOUND:                -1.263
REMARK  Name = ligantes_geracao2\Derivado_012.pdb
REMARK  8 active torsions:
REMARK  status: ('A' for Active; 'I' for Inactive)
REMARK    1  A    between atoms: C1_1  and  C2_2
REMARK    2  A    between atoms: C2_2  and  C3_3
REMARK    3  A    between atoms: C3_3  and  C4_4
REMARK    4  A    between atoms: C3_3  and  C5_5
REMARK    5  A    between atoms: C5_5  and  C6_7
REMARK    6  A    between atoms: C7_8  and  C8_9
REMARK    7  A    between atoms: C11_12  and  C12_13
REMARK    8  A    between atoms: C16_18  and  C17_19
REMARK                            x       y       z     vdW  Elec       q    Type
REMARK                         _______ _______ _______ _____ _____    ______ ____
ROOT
ATOM      1  C6  UNL     1       2.321  61.711  71.014  0.00  0.00    +0.000 C 
ATOM      2  C7  UNL     1       2.059  60.257  70.603  0.00  0.00    +0.000 C 
ATOM      3  C8  UNL     1       2.801  59.243  71.465  0.00  0.00    +0.000 C 
ATOM      4  C9  UNL     1       2.532  60.229  69.152  0.00  0.00    +0.000 C 
ATOM      5  C10 UNL     1       1.990  61.532  68.578  0.00  0.00    +0.000 C 
ATOM      6  C11 UNL     1       2.006  62.543  69.744  0.00  0.00    +0.000 C 
ENDROOT
BRANCH   6   7
ATOM      7  C12 UNL     1       2.976  63.696  69.551  0.00  0.00    +0.000 C 
ATOM      8  C13 UNL     1       2.526  64.956  69.162  0.00  0.00    +0.000 C 
ATOM      9  N1  UNL     1       3.322  66.027  68.947  0.00  0.00    +0.000 NA
ATOM     10  C14 UNL     1       4.646  65.850  69.109  0.00  0.00    +0.000 C 
ATOM     11  C15 UNL     1       5.211  64.647  69.484  0.00  0.00    +0.000 C 
ATOM     12  C16 UNL     1       4.368  63.556  69.710  0.00  0.00    +0.000 C 
BRANCH  12  13
ATOM     13  C17 UNL     1       4.969  62.317  70.118  0.00  0.00    +0.000 C 
ATOM     14  N2  UNL     1       5.476  61.315  70.413  0.00  0.00    +0.000 NA
ENDBRANCH  12  13
ENDBRANCH   6   7
BRANCH   1  15
ATOM     15  C5  UNL     1       1.565  62.268  72.222  0.00  0.00    +0.000 C 
ATOM     16  O1  UNL     1       2.082  62.155  73.339  0.00  0.00    +0.000 OA
BRANCH  15  17
ATOM     17  C3  UNL     1       0.246  63.021  72.039  0.00  0.00    +0.000 C 
ATOM     18  C4  UNL     1      -0.117  63.728  73.343  0.00  0.00    +0.000 C 
BRANCH  17  20
ATOM     19  C1  UNL     1      -1.355  61.174  72.763  0.00  0.00    +0.000 C 
ATOM     20  C2  UNL     1      -0.894  62.072  71.621  0.00  0.00    +0.000 C 
ENDBRANCH  17  20
ENDBRANCH  15  17
ENDBRANCH   1  15
TORSDOF 5
ENDMDL
MODEL 6
REMARK VINA RESULT:    -6.941      7.434     10.287
REMARK INTER + INTRA:         -10.232
REMARK INTER:                  -8.715
REMARK INTRA:                  -1.517
REMARK UNBOUND:                -1.263
REMARK  Name = ligantes_geracao2\Derivado_012.pdb
REMARK  8 active torsions:
REMARK  status: ('A' for Active; 'I' for Inactive)
REMARK    1  A    between atoms: C1_1  and  C2_2
REMARK    2  A    between atoms: C2_2  and  C3_3
REMARK    3  A    between atoms: C3_3  and  C4_4
REMARK    4  A    between atoms: C3_3  and  C5_5
REMARK    5  A    between atoms: C5_5  and  C6_7
REMARK    6  A    between atoms: C7_8  and  C8_9
REMARK    7  A    between atoms: C11_12  and  C12_13
REMARK    8  A    between atoms: C16_18  and  C17_19
REMARK                            x       y       z     vdW  Elec       q    Type
REMARK                         _______ _______ _______ _____ _____    ______ ____
ROOT
ATOM      1  C6  UNL     1       1.403  61.809  71.199  0.00  0.00    +0.000 C 
ATOM      2  C7  UNL     1       0.118  62.580  70.874  0.00  0.00    +0.000 C 
ATOM      3  C8  UNL     1       0.294  64.093  70.919  0.00  0.00    +0.000 C 
ATOM      4  C9  UNL     1      -0.850  62.085  71.946  0.00  0.00    +0.000 C 
ATOM      5  C10 UNL     1      -0.582  60.587  71.999  0.00  0.00    +0.000 C 
ATOM      6  C11 UNL     1       0.917  60.416  71.675  0.00  0.00    +0.000 C 
ENDROOT
BRANCH   6   7
ATOM      7  C12 UNL     1       1.743  59.879  72.832  0.00  0.00    +0.000 C 
ATOM      8  C13 UNL     1       1.543  60.340  74.132  0.00  0.00    +0.000 C 
ATOM      9  N1  UNL     1       2.246  59.934  75.212  0.00  0.00    +0.000 NA
ATOM     10  C14 UNL     1       3.219  59.028  75.005  0.00  0.00    +0.000 C 
ATOM     11  C15 UNL     1       3.516  58.503  73.762  0.00  0.00    +0.000 C 
ATOM     12  C16 UNL     1       2.770  58.932  72.662  0.00  0.00    +0.000 C 
BRANCH  12  13
ATOM     13  C17 UNL     1       3.077  58.363  71.379  0.00  0.00    +0.000 C 
ATOM     14  N2  UNL     1       3.340  57.940  70.330  0.00  0.00    +0.000 NA
ENDBRANCH  12  13
ENDBRANCH   6   7
BRANCH   1  15
ATOM     15  C5  UNL     1       2.456  61.663  70.099  0.00  0.00    +0.000 C 
ATOM     16  O1  UNL     1       2.168  60.996  69.099  0.00  0.00    +0.000 OA
BRANCH  15  17
ATOM     17  C3  UNL     1       3.797  62.392  70.198  0.00  0.00    +0.000 C 
ATOM     18  C4  UNL     1       3.931  63.362  69.026  0.00  0.00    +0.000 C 
BRANCH  17  20
ATOM     19  C1  UNL     1       5.448  61.059  71.610  0.00  0.00    +0.000 C 
ATOM     20  C2  UNL     1       4.980  61.405  70.201  0.00  0.00    +0.000 C 
ENDBRANCH  17  20
ENDBRANCH  15  17
ENDBRANCH   1  15
TORSDOF 5
ENDMDL
MODEL 7
REMARK VINA RESULT:    -6.609      6.460      9.311
REMARK INTER + INTRA:          -9.803
REMARK INTER:                  -8.546
REMARK INTRA:                  -1.257
REMARK UNBOUND:                -1.263
REMARK  Name = ligantes_geracao2\Derivado_012.pdb
REMARK  8 active torsions:
REMARK  status: ('A' for Active; 'I' for Inactive)
REMARK    1  A    between atoms: C1_1  and  C2_2
REMARK    2  A    between atoms: C2_2  and  C3_3
REMARK    3  A    between atoms: C3_3  and  C4_4
REMARK    4  A    between atoms: C3_3  and  C5_5
REMARK    5  A    between atoms: C5_5  and  C6_7
REMARK    6  A    between atoms: C7_8  and  C8_9
REMARK    7  A    between atoms: C11_12  and  C12_13
REMARK    8  A    between atoms: C16_18  and  C17_19
REMARK                            x       y       z     vdW  Elec       q    Type
REMARK                         _______ _______ _______ _____ _____    ______ ____
ROOT
ATOM      1  C6  UNL     1       2.712  61.340  70.403  0.00  0.00    +0.000 C 
ATOM      2  C7  UNL     1       4.214  61.084  70.231  0.00  0.00    +0.000 C 
ATOM      3  C8  UNL     1       4.569  60.452  68.892  0.00  0.00    +0.000 C 
ATOM      4  C9  UNL     1       4.532  60.158  71.403  0.00  0.00    +0.000 C 
ATOM      5  C10 UNL     1       3.760  60.776  72.562  0.00  0.00    +0.000 C 
ATOM      6  C11 UNL     1       2.495  61.403  71.937  0.00  0.00    +0.000 C 
ENDROOT
BRANCH   6   7
ATOM      7  C12 UNL     1       1.198  60.737  72.366  0.00  0.00    +0.000 C 
ATOM      8  C13 UNL     1       1.101  59.350  72.465  0.00  0.00    +0.000 C 
ATOM      9  N1  UNL     1      -0.017  58.678  72.816  0.00  0.00    +0.000 NA
ATOM     10  C14 UNL     1      -1.117  59.409  73.073  0.00  0.00    +0.000 C 
ATOM     11  C15 UNL     1      -1.146  60.788  73.002  0.00  0.00    +0.000 C 
ATOM     12  C16 UNL     1       0.025  61.462  72.645  0.00  0.00    +0.000 C 
BRANCH  12  13
ATOM     13  C17 UNL     1      -0.016  62.897  72.593  0.00  0.00    +0.000 C 
ATOM     14  N2  UNL     1      -0.017  64.058  72.577  0.00  0.00    +0.000 NA
ENDBRANCH  12  13
ENDBRANCH   6   7
BRANCH   1  15
ATOM     15  C5  UNL     1       2.106  62.571  69.725  0.00  0.00    +0.000 C 
ATOM     16  O1  UNL     1       1.006  62.453  69.174  0.00  0.00    +0.000 OA
BRANCH  15  17
ATOM     17  C3  UNL     1       2.806  63.929  69.802  0.00  0.00    +0.000 C 
ATOM     18  C4  UNL     1       1.769  65.040  69.655  0.00  0.00    +0.000 C 
BRANCH  17  20
ATOM     19  C1  UNL     1       5.131  64.794  69.218  0.00  0.00    +0.000 C 
ATOM     20  C2  UNL     1       3.887  64.072  68.714  0.00  0.00    +0.000 C 
ENDBRANCH  17  20
ENDBRANCH  15  17
ENDBRANCH   1  15
TORSDOF 5
ENDMDL
MODEL 8
REMARK VINA RESULT:    -6.451      7.225      9.577
REMARK INTER + INTRA:          -9.599
REMARK INTER:                  -8.246
REMARK INTRA:                  -1.354
REMARK UNBOUND:                -1.263
REMARK  Name = ligantes_geracao2\Derivado_012.pdb
REMARK  8 active torsions:
REMARK  status: ('A' for Active; 'I' for Inactive)
REMARK    1  A    between atoms: C1_1  and  C2_2
REMARK    2  A    between atoms: C2_2  and  C3_3
REMARK    3  A    between atoms: C3_3  and  C4_4
REMARK    4  A    between atoms: C3_3  and  C5_5
REMARK    5  A    between atoms: C5_5  and  C6_7
REMARK    6  A    between atoms: C7_8  and  C8_9
REMARK    7  A    between atoms: C11_12  and  C12_13
REMARK    8  A    between atoms: C16_18  and  C17_19
REMARK                            x       y       z     vdW  Elec       q    Type
REMARK                         _______ _______ _______ _____ _____    ______ ____
ROOT
ATOM      1  C6  UNL     1       0.779  60.950  71.971  0.00  0.00    +0.000 C 
ATOM      2  C7  UNL     1      -0.226  61.100  73.120  0.00  0.00    +0.000 C 
ATOM      3  C8  UNL     1      -1.641  60.680  72.743  0.00  0.00    +0.000 C 
ATOM      4  C9  UNL     1      -0.139  62.589  73.448  0.00  0.00    +0.000 C 
ATOM      5  C10 UNL     1       1.356  62.876  73.397  0.00  0.00    +0.000 C 
ATOM      6  C11 UNL     1       1.929  61.928  72.323  0.00  0.00    +0.000 C 
ENDROOT
BRANCH   6   7
ATOM      7  C12 UNL     1       2.478  62.640  71.098  0.00  0.00    +0.000 C 
ATOM      8  C13 UNL     1       1.739  63.630  70.452  0.00  0.00    +0.000 C 
ATOM      9  N1  UNL     1       2.142  64.295  69.347  0.00  0.00    +0.000 NA
ATOM     10  C14 UNL     1       3.339  63.961  68.832  0.00  0.00    +0.000 C 
ATOM     11  C15 UNL     1       4.158  62.993  69.379  0.00  0.00    +0.000 C 
ATOM     12  C16 UNL     1       3.725  62.324  70.526  0.00  0.00    +0.000 C 
BRANCH  12  13
ATOM     13  C17 UNL     1       4.595  61.333  71.095  0.00  0.00    +0.000 C 
ATOM     14  N2  UNL     1       5.285  60.505  71.527  0.00  0.00    +0.000 NA
ENDBRANCH  12  13
ENDBRANCH   6   7
BRANCH   1  15
ATOM     15  C5  UNL     1       1.332  59.556  71.673  0.00  0.00    +0.000 C 
ATOM     16  O1  UNL     1       1.774  59.331  70.541  0.00  0.00    +0.000 OA
BRANCH  15  17
ATOM     17  C3  UNL     1       1.414  58.496  72.773  0.00  0.00    +0.000 C 
ATOM     18  C4  UNL     1       2.839  58.445  73.320  0.00  0.00    +0.000 C 
BRANCH  17  20
ATOM     19  C1  UNL     1      -0.231  56.557  72.964  0.00  0.00    +0.000 C 
ATOM     20  C2  UNL     1       1.001  57.106  72.252  0.00  0.00    +0.000 C 
ENDBRANCH  17  20
ENDBRANCH  15  17
ENDBRANCH   1  15
TORSDOF 5
ENDMDL
MODEL 9
REMARK VINA RESULT:    -6.440      6.831      9.598
REMARK INTER + INTRA:          -9.585
REMARK INTER:                  -8.192
REMARK INTRA:                  -1.392
REMARK UNBOUND:                -1.263
REMARK  Name = ligantes_geracao2\Derivado_012.pdb
REMARK  8 active torsions:
REMARK  status: ('A' for Active; 'I' for Inactive)
REMARK    1  A    between atoms: C1_1  and  C2_2
REMARK    2  A    between atoms: C2_2  and  C3_3
REMARK    3  A    between atoms: C3_3  and  C4_4
REMARK    4  A    between atoms: C3_3  and  C5_5
REMARK    5  A    between atoms: C5_5  and  C6_7
REMARK    6  A    between atoms: C7_8  and  C8_9
REMARK    7  A    between atoms: C11_12  and  C12_13
REMARK    8  A    between atoms: C16_18  and  C17_19
REMARK                            x       y       z     vdW  Elec       q    Type
REMARK                         _______ _______ _______ _____ _____    ______ ____
ROOT
ATOM      1  C6  UNL     1       2.363  62.542  70.763  0.00  0.00    +0.000 C 
ATOM      2  C7  UNL     1       2.465  63.484  69.557  0.00  0.00    +0.000 C 
ATOM      3  C8  UNL     1       3.816  64.181  69.448  0.00  0.00    +0.000 C 
ATOM      4  C9  UNL     1       1.330  64.475  69.810  0.00  0.00    +0.000 C 
ATOM      5  C10 UNL     1       0.184  63.587  70.277  0.00  0.00    +0.000 C 
ATOM      6  C11 UNL     1       0.842  62.417  71.038  0.00  0.00    +0.000 C 
ENDROOT
BRANCH   6   7
ATOM      7  C12 UNL     1       0.523  62.386  72.523  0.00  0.00    +0.000 C 
ATOM      8  C13 UNL     1       0.415  63.565  73.258  0.00  0.00    +0.000 C 
ATOM      9  N1  UNL     1       0.158  63.627  74.583  0.00  0.00    +0.000 NA
ATOM     10  C14 UNL     1       0.011  62.460  75.235  0.00  0.00    +0.000 C 
ATOM     11  C15 UNL     1       0.103  61.228  74.617  0.00  0.00    +0.000 C 
ATOM     12  C16 UNL     1       0.361  61.189  73.245  0.00  0.00    +0.000 C 
BRANCH  12  13
ATOM     13  C17 UNL     1       0.436  59.901  72.612  0.00  0.00    +0.000 C 
ATOM     14  N2  UNL     1       0.474  58.845  72.131  0.00  0.00    +0.000 NA
ENDBRANCH  12  13
ENDBRANCH   6   7
BRANCH   1  15
ATOM     15  C5  UNL     1       3.005  61.158  70.654  0.00  0.00    +0.000 C 
ATOM     16  O1  UNL     1       2.580  60.383  69.789  0.00  0.00    +0.000 OA
BRANCH  15  17
ATOM     17  C3  UNL     1       4.195  60.776  71.535  0.00  0.00    +0.000 C 
ATOM     18  C4  UNL     1       5.492  61.045  70.775  0.00  0.00    +0.000 C 
BRANCH  17  20
ATOM     19  C1  UNL     1       3.905  59.130  73.459  0.00  0.00    +0.000 C 
ATOM     20  C2  UNL     1       4.133  59.297  71.961  0.00  0.00    +0.000 C 
ENDBRANCH  17  20
ENDBRANCH  15  17
ENDBRANCH   1  15
TORSDOF 5
ENDMDL
