MODEL 1
REMARK VINA RESULT:    -6.057      0.000      0.000
REMARK INTER + INTRA:          -9.056
REMARK INTER:                  -7.473
REMARK INTRA:                  -1.583
REMARK UNBOUND:                -1.583
REMARK  Name = ligantes_geracao2\Derivado_024.pdb
REMARK  6 active torsions:
REMARK  status: ('A' for Active; 'I' for Inactive)
REMARK    1  A    between atoms: C1_1  and  C2_2
REMARK    2  A    between atoms: C2_2  and  C3_3
REMARK    3  A    between atoms: C2_2  and  C4_4
REMARK    4  A    between atoms: C4_4  and  C5_6
REMARK    5  A    between atoms: C9_11  and  C10_12
REMARK    6  A    between atoms: C14_17  and  C15_18
REMARK                            x       y       z     vdW  Elec       q    Type
REMARK                         _______ _______ _______ _____ _____    ______ ____
ROOT
ATOM      1  C5  UNL     1       1.038   2.687  18.588  0.00  0.00    +0.000 C 
ATOM      2  C6  UNL     1       0.957   2.628  17.064  0.00  0.00    +0.000 C 
ATOM      3 CL1  UNL     1      -0.684   2.913  16.456  0.00  0.00    +0.000 Cl
ATOM      4  C7  UNL     1       1.436   1.222  16.735  0.00  0.00    +0.000 C 
ATOM      5  C8  UNL     1       2.604   1.006  17.692  0.00  0.00    +0.000 C 
ATOM      6  C9  UNL     1       2.309   1.879  18.931  0.00  0.00    +0.000 C 
ENDROOT
BRANCH   6   7
ATOM      7  C10 UNL     1       2.249   1.128  20.248  0.00  0.00    +0.000 C 
ATOM      8  C11 UNL     1       1.345   0.061  20.345  0.00  0.00    +0.000 C 
ATOM      9  N1  UNL     1       1.146  -0.701  21.442  0.00  0.00    +0.000 NA
ATOM     10  C12 UNL     1       1.889  -0.403  22.522  0.00  0.00    +0.000 C 
ATOM     11  C13 UNL     1       2.819   0.619  22.547  0.00  0.00    +0.000 C 
ATOM     12  C14 UNL     1       3.010   1.402  21.399  0.00  0.00    +0.000 C 
BRANCH  12  13
ATOM     13  C15 UNL     1       4.024   2.458  21.478  0.00  0.00    +0.000 C 
ATOM     14  C16 UNL     1       3.787   3.653  22.025  0.00  0.00    +0.000 C 
ATOM     15  F1  UNL     1       2.586   4.002  22.520  0.00  0.00    +0.000 F 
ENDBRANCH  12  13
ENDBRANCH   6   7
BRANCH   1  16
ATOM     16  C4  UNL     1       1.074   4.104  19.146  0.00  0.00    +0.000 C 
ATOM     17  O1  UNL     1       2.131   4.740  19.130  0.00  0.00    +0.000 OA
BRANCH  16  19
ATOM     18  C1  UNL     1       0.130   5.576  20.929  0.00  0.00    +0.000 C 
ATOM     19  C2  UNL     1      -0.203   4.733  19.702  0.00  0.00    +0.000 C 
ATOM     20  C3  UNL     1      -1.205   3.636  20.045  0.00  0.00    +0.000 C 
ENDBRANCH  16  19
ENDBRANCH   1  16
TORSDOF 4
ENDMDL
MODEL 2
REMARK VINA RESULT:    -5.821      3.441      5.282
REMARK INTER + INTRA:          -8.765
REMARK INTER:                  -7.304
REMARK INTRA:                  -1.462
REMARK UNBOUND:                -1.583
REMARK  Name = ligantes_geracao2\Derivado_024.pdb
REMARK  6 active torsions:
REMARK  status: ('A' for Active; 'I' for Inactive)
REMARK    1  A    between atoms: C1_1  and  C2_2
REMARK    2  A    between atoms: C2_2  and  C3_3
REMARK    3  A    between atoms: C2_2  and  C4_4
REMARK    4  A    between atoms: C4_4  and  C5_6
REMARK    5  A    between atoms: C9_11  and  C10_12
REMARK    6  A    between atoms: C14_17  and  C15_18
REMARK                            x       y       z     vdW  Elec       q    Type
REMARK                         _______ _______ _______ _____ _____    ______ ____
ROOT
ATOM      1  C5  UNL     1       1.797   0.553  20.250  0.00  0.00    +0.000 C 
ATOM      2  C6  UNL     1       2.544   1.233  21.395  0.00  0.00    +0.000 C 
ATOM      3 CL1  UNL     1       3.998   2.089  20.849  0.00  0.00    +0.000 Cl
ATOM      4  C7  UNL     1       2.893   0.082  22.327  0.00  0.00    +0.000 C 
ATOM      5  C8  UNL     1       1.637  -0.783  22.317  0.00  0.00    +0.000 C 
ATOM      6  C9  UNL     1       0.972  -0.555  20.942  0.00  0.00    +0.000 C 
ENDROOT
BRANCH   6   7
ATOM      7  C10 UNL     1       0.766  -1.807  20.110  0.00  0.00    +0.000 C 
ATOM      8  C11 UNL     1       1.899  -2.571  19.798  0.00  0.00    +0.000 C 
ATOM      9  N1  UNL     1       1.904  -3.699  19.056  0.00  0.00    +0.000 NA
ATOM     10  C12 UNL     1       0.714  -4.115  18.588  0.00  0.00    +0.000 C 
ATOM     11  C13 UNL     1      -0.474  -3.452  18.835  0.00  0.00    +0.000 C 
ATOM     12  C14 UNL     1      -0.459  -2.280  19.606  0.00  0.00    +0.000 C 
BRANCH  12  13
ATOM     13  C15 UNL     1      -1.751  -1.632  19.851  0.00  0.00    +0.000 C 
ATOM     14  C16 UNL     1      -2.489  -1.872  20.937  0.00  0.00    +0.000 C 
ATOM     15  F1  UNL     1      -2.125  -2.755  21.885  0.00  0.00    +0.000 F 
ENDBRANCH  12  13
ENDBRANCH   6   7
BRANCH   1  16
ATOM     16  C4  UNL     1       0.933   1.504  19.430  0.00  0.00    +0.000 C 
ATOM     17  O1  UNL     1      -0.109   1.952  19.914  0.00  0.00    +0.000 OA
BRANCH  16  19
ATOM     18  C1  UNL     1       2.365   0.884  17.481  0.00  0.00    +0.000 C 
ATOM     19  C2  UNL     1       1.375   1.909  18.025  0.00  0.00    +0.000 C 
ATOM     20  C3  UNL     1       1.995   3.301  18.066  0.00  0.00    +0.000 C 
ENDBRANCH  16  19
ENDBRANCH   1  16
TORSDOF 4
ENDMDL
MODEL 3
REMARK VINA RESULT:    -5.821     24.893     26.746
REMARK INTER + INTRA:          -8.765
REMARK INTER:                  -7.363
REMARK INTRA:                  -1.402
REMARK UNBOUND:                -1.583
REMARK  Name = ligantes_geracao2\Derivado_024.pdb
REMARK  6 active torsions:
REMARK  status: ('A' for Active; 'I' for Inactive)
REMARK    1  A    between atoms: C1_1  and  C2_2
REMARK    2  A    between atoms: C2_2  and  C3_3
REMARK    3  A    between atoms: C2_2  and  C4_4
REMARK    4  A    between atoms: C4_4  and  C5_6
REMARK    5  A    between atoms: C9_11  and  C10_12
REMARK    6  A    between atoms: C14_17  and  C15_18
REMARK                            x       y       z     vdW  Elec       q    Type
REMARK                         _______ _______ _______ _____ _____    ______ ____
ROOT
ATOM      1  C5  UNL     1      18.318  -7.571   2.266  0.00  0.00    +0.000 C 
ATOM      2  C6  UNL     1      19.656  -7.991   2.868  0.00  0.00    +0.000 C 
ATOM      3 CL1  UNL     1      19.489  -8.667   4.500  0.00  0.00    +0.000 Cl
ATOM      4  C7  UNL     1      20.463  -6.701   2.881  0.00  0.00    +0.000 C 
ATOM      5  C8  UNL     1      20.119  -6.048   1.545  0.00  0.00    +0.000 C 
ATOM      6  C9  UNL     1      18.697  -6.533   1.186  0.00  0.00    +0.000 C 
ENDROOT
BRANCH   6   7
ATOM      7  C10 UNL     1      17.675  -5.432   0.976  0.00  0.00    +0.000 C 
ATOM      8  C11 UNL     1      17.176  -4.785   2.114  0.00  0.00    +0.000 C 
ATOM      9  N1  UNL     1      16.252  -3.801   2.114  0.00  0.00    +0.000 NA
ATOM     10  C12 UNL     1      15.784  -3.416   0.914  0.00  0.00    +0.000 C 
ATOM     11  C13 UNL     1      16.204  -3.972  -0.279  0.00  0.00    +0.000 C 
ATOM     12  C14 UNL     1      17.164  -4.996  -0.260  0.00  0.00    +0.000 C 
BRANCH  12  13
ATOM     13  C15 UNL     1      17.586  -5.533  -1.557  0.00  0.00    +0.000 C 
ATOM     14  C16 UNL     1      18.511  -4.946  -2.320  0.00  0.00    +0.000 C 
ATOM     15  F1  UNL     1      19.113  -3.792  -1.977  0.00  0.00    +0.000 F 
ENDBRANCH  12  13
ENDBRANCH   6   7
BRANCH   1  16
ATOM     16  C4  UNL     1      17.506  -8.733   1.704  0.00  0.00    +0.000 C 
ATOM     17  O1  UNL     1      17.843  -9.253   0.638  0.00  0.00    +0.000 OA
BRANCH  16  19
ATOM     18  C1  UNL     1      15.825  -8.200   3.472  0.00  0.00    +0.000 C 
ATOM     19  C2  UNL     1      16.296  -9.255   2.477  0.00  0.00    +0.000 C 
ATOM     20  C3  UNL     1      16.665 -10.553   3.187  0.00  0.00    +0.000 C 
ENDBRANCH  16  19
ENDBRANCH   1  16
TORSDOF 4
ENDMDL
MODEL 4
REMARK VINA RESULT:    -5.807     23.306     25.261
REMARK INTER + INTRA:          -8.748
REMARK INTER:                  -7.278
REMARK INTRA:                  -1.470
REMARK UNBOUND:                -1.583
REMARK  Name = ligantes_geracao2\Derivado_024.pdb
REMARK  6 active torsions:
REMARK  status: ('A' for Active; 'I' for Inactive)
REMARK    1  A    between atoms: C1_1  and  C2_2
REMARK    2  A    between atoms: C2_2  and  C3_3
REMARK    3  A    between atoms: C2_2  and  C4_4
REMARK    4  A    between atoms: C4_4  and  C5_6
REMARK    5  A    between atoms: C9_11  and  C10_12
REMARK    6  A    between atoms: C14_17  and  C15_18
REMARK                            x       y       z     vdW  Elec       q    Type
REMARK                         _______ _______ _______ _____ _____    ______ ____
ROOT
ATOM      1  C5  UNL     1      15.844  -6.318   1.608  0.00  0.00    +0.000 C 
ATOM      2  C6  UNL     1      14.912  -6.505   0.413  0.00  0.00    +0.000 C 
ATOM      3 CL1  UNL     1      13.213  -6.674   0.892  0.00  0.00    +0.000 Cl
ATOM      4  C7  UNL     1      15.431  -7.773  -0.249  0.00  0.00    +0.000 C 
ATOM      5  C8  UNL     1      16.948  -7.628  -0.166  0.00  0.00    +0.000 C 
ATOM      6  C9  UNL     1      17.226  -6.765   1.084  0.00  0.00    +0.000 C 
ENDROOT
BRANCH   6   7
ATOM      7  C10 UNL     1      18.123  -7.410   2.125  0.00  0.00    +0.000 C 
ATOM      8  C11 UNL     1      17.551  -8.377   2.963  0.00  0.00    +0.000 C 
ATOM      9  N1  UNL     1      18.192  -9.035   3.952  0.00  0.00    +0.000 NA
ATOM     10  C12 UNL     1      19.489  -8.732   4.132  0.00  0.00    +0.000 C 
ATOM     11  C13 UNL     1      20.166  -7.803   3.365  0.00  0.00    +0.000 C 
ATOM     12  C14 UNL     1      19.483  -7.127   2.343  0.00  0.00    +0.000 C 
BRANCH  12  13
ATOM     13  C15 UNL     1      20.258  -6.168   1.550  0.00  0.00    +0.000 C 
ATOM     14  C16 UNL     1      20.193  -4.848   1.738  0.00  0.00    +0.000 C 
ATOM     15  F1  UNL     1      19.384  -4.282   2.653  0.00  0.00    +0.000 F 
ENDBRANCH  12  13
ENDBRANCH   6   7
BRANCH   1  16
ATOM     16  C4  UNL     1      15.855  -4.898   2.160  0.00  0.00    +0.000 C 
ATOM     17  O1  UNL     1      16.508  -4.024   1.583  0.00  0.00    +0.000 OA
BRANCH  16  19
ATOM     18  C1  UNL     1      14.637  -5.851   4.120  0.00  0.00    +0.000 C 
ATOM     19  C2  UNL     1      15.044  -4.564   3.410  0.00  0.00    +0.000 C 
ATOM     20  C3  UNL     1      13.820  -3.742   3.021  0.00  0.00    +0.000 C 
ENDBRANCH  16  19
ENDBRANCH   1  16
TORSDOF 4
ENDMDL
MODEL 5
REMARK VINA RESULT:    -5.798      3.244      5.005
REMARK INTER + INTRA:          -8.737
REMARK INTER:                  -7.179
REMARK INTRA:                  -1.558
REMARK UNBOUND:                -1.583
REMARK  Name = ligantes_geracao2\Derivado_024.pdb
REMARK  6 active torsions:
REMARK  status: ('A' for Active; 'I' for Inactive)
REMARK    1  A    between atoms: C1_1  and  C2_2
REMARK    2  A    between atoms: C2_2  and  C3_3
REMARK    3  A    between atoms: C2_2  and  C4_4
REMARK    4  A    between atoms: C4_4  and  C5_6
REMARK    5  A    between atoms: C9_11  and  C10_12
REMARK    6  A    between atoms: C14_17  and  C15_18
REMARK                            x       y       z     vdW  Elec       q    Type
REMARK                         _______ _______ _______ _____ _____    ______ ____
ROOT
ATOM      1  C5  UNL     1       0.238  -0.417  18.539  0.00  0.00    +0.000 C 
ATOM      2  C6  UNL     1      -1.217  -0.223  18.119  0.00  0.00    +0.000 C 
ATOM      3 CL1  UNL     1      -1.388   0.121  16.388  0.00  0.00    +0.000 Cl
ATOM      4  C7  UNL     1      -1.679   0.952  18.968  0.00  0.00    +0.000 C 
ATOM      5  C8  UNL     1      -1.051   0.682  20.332  0.00  0.00    +0.000 C 
ATOM      6  C9  UNL     1       0.237  -0.124  20.056  0.00  0.00    +0.000 C 
ENDROOT
BRANCH   6   7
ATOM      7  C10 UNL     1       1.514   0.503  20.583  0.00  0.00    +0.000 C 
ATOM      8  C11 UNL     1       1.991   1.648  19.931  0.00  0.00    +0.000 C 
ATOM      9  N1  UNL     1       3.116   2.322  20.252  0.00  0.00    +0.000 NA
ATOM     10  C12 UNL     1       3.825   1.847  21.290  0.00  0.00    +0.000 C 
ATOM     11  C13 UNL     1       3.454   0.731  22.017  0.00  0.00    +0.000 C 
ATOM     12  C14 UNL     1       2.283   0.042  21.667  0.00  0.00    +0.000 C 
BRANCH  12  13
ATOM     13  C15 UNL     1       1.929  -1.121  22.487  0.00  0.00    +0.000 C 
ATOM     14  C16 UNL     1       2.137  -2.379  22.091  0.00  0.00    +0.000 C 
ATOM     15  F1  UNL     1       2.660  -2.688  20.890  0.00  0.00    +0.000 F 
ENDBRANCH  12  13
ENDBRANCH   6   7
BRANCH   1  16
ATOM     16  C4  UNL     1       0.794  -1.797  18.207  0.00  0.00    +0.000 C 
ATOM     17  O1  UNL     1       0.385  -2.784  18.824  0.00  0.00    +0.000 OA
BRANCH  16  19
ATOM     18  C1  UNL     1       2.822  -3.053  17.470  0.00  0.00    +0.000 C 
ATOM     19  C2  UNL     1       1.837  -1.948  17.102  0.00  0.00    +0.000 C 
ATOM     20  C3  UNL     1       2.556  -0.620  16.892  0.00  0.00    +0.000 C 
ENDBRANCH  16  19
ENDBRANCH   1  16
TORSDOF 4
ENDMDL
MODEL 6
REMARK VINA RESULT:    -5.795     24.703     26.585
REMARK INTER + INTRA:          -8.733
REMARK INTER:                  -6.976
REMARK INTRA:                  -1.757
REMARK UNBOUND:                -1.583
REMARK  Name = ligantes_geracao2\Derivado_024.pdb
REMARK  6 active torsions:
REMARK  status: ('A' for Active; 'I' for Inactive)
REMARK    1  A    between atoms: C1_1  and  C2_2
REMARK    2  A    between atoms: C2_2  and  C3_3
REMARK    3  A    between atoms: C2_2  and  C4_4
REMARK    4  A    between atoms: C4_4  and  C5_6
REMARK    5  A    between atoms: C9_11  and  C10_12
REMARK    6  A    between atoms: C14_17  and  C15_18
REMARK                            x       y       z     vdW  Elec       q    Type
REMARK                         _______ _______ _______ _____ _____    ______ ____
ROOT
ATOM      1  C5  UNL     1      18.509  -7.975   2.590  0.00  0.00    +0.000 C 
ATOM      2  C6  UNL     1      19.910  -8.353   3.063  0.00  0.00    +0.000 C 
ATOM      3 CL1  UNL     1      19.966  -8.735   4.794  0.00  0.00    +0.000 Cl
ATOM      4  C7  UNL     1      20.741  -7.120   2.739  0.00  0.00    +0.000 C 
ATOM      5  C8  UNL     1      20.222  -6.685   1.372  0.00  0.00    +0.000 C 
ATOM      6  C9  UNL     1      18.752  -7.153   1.305  0.00  0.00    +0.000 C 
ENDROOT
BRANCH   6   7
ATOM      7  C10 UNL     1      17.737  -6.055   1.051  0.00  0.00    +0.000 C 
ATOM      8  C11 UNL     1      17.773  -4.933   1.890  0.00  0.00    +0.000 C 
ATOM      9  N1  UNL     1      16.937  -3.875   1.821  0.00  0.00    +0.000 NA
ATOM     10  C12 UNL     1      16.000  -3.913   0.858  0.00  0.00    +0.000 C 
ATOM     11  C13 UNL     1      15.868  -4.960  -0.035  0.00  0.00    +0.000 C 
ATOM     12  C14 UNL     1      16.744  -6.052   0.054  0.00  0.00    +0.000 C 
BRANCH  12  13
ATOM     13  C15 UNL     1      16.570  -7.122  -0.933  0.00  0.00    +0.000 C 
ATOM     14  C16 UNL     1      15.678  -8.105  -0.788  0.00  0.00    +0.000 C 
ATOM     15  F1  UNL     1      14.883  -8.214   0.292  0.00  0.00    +0.000 F 
ENDBRANCH  12  13
ENDBRANCH   6   7
BRANCH   1  16
ATOM     16  C4  UNL     1      17.596  -9.174   2.357  0.00  0.00    +0.000 C 
ATOM     17  O1  UNL     1      17.851  -9.968   1.448  0.00  0.00    +0.000 OA
BRANCH  16  19
ATOM     18  C1  UNL     1      15.435 -10.396   2.621  0.00  0.00    +0.000 C 
ATOM     19  C2  UNL     1      16.386  -9.392   3.264  0.00  0.00    +0.000 C 
ATOM     20  C3  UNL     1      15.689  -8.060   3.516  0.00  0.00    +0.000 C 
ENDBRANCH  16  19
ENDBRANCH   1  16
TORSDOF 4
ENDMDL
MODEL 7
REMARK VINA RESULT:    -5.670      2.393      3.210
REMARK INTER + INTRA:          -8.578
REMARK INTER:                  -6.925
REMARK INTRA:                  -1.653
REMARK UNBOUND:                -1.583
REMARK  Name = ligantes_geracao2\Derivado_024.pdb
REMARK  6 active torsions:
REMARK  status: ('A' for Active; 'I' for Inactive)
REMARK    1  A    between atoms: C1_1  and  C2_2
REMARK    2  A    between atoms: C2_2  and  C3_3
REMARK    3  A    between atoms: C2_2  and  C4_4
REMARK    4  A    between atoms: C4_4  and  C5_6
REMARK    5  A    between atoms: C9_11  and  C10_12
REMARK    6  A    between atoms: C14_17  and  C15_18
REMARK                            x       y       z     vdW  Elec       q    Type
REMARK                         _______ _______ _______ _____ _____    ______ ____
ROOT
ATOM      1  C5  UNL     1       0.022   1.380  18.655  0.00  0.00    +0.000 C 
ATOM      2  C6  UNL     1       0.363   2.625  17.839  0.00  0.00    +0.000 C 
ATOM      3 CL1  UNL     1      -0.532   2.705  16.310  0.00  0.00    +0.000 Cl
ATOM      4  C7  UNL     1       1.861   2.496  17.601  0.00  0.00    +0.000 C 
ATOM      5  C8  UNL     1       2.396   1.989  18.937  0.00  0.00    +0.000 C 
ATOM      6  C9  UNL     1       1.243   1.189  19.582  0.00  0.00    +0.000 C 
ENDROOT
BRANCH   6   7
ATOM      7  C10 UNL     1       1.569  -0.255  19.916  0.00  0.00    +0.000 C 
ATOM      8  C11 UNL     1       1.559  -1.180  18.864  0.00  0.00    +0.000 C 
ATOM      9  N1  UNL     1       1.805  -2.503  18.981  0.00  0.00    +0.000 NA
ATOM     10  C12 UNL     1       2.087  -2.954  20.215  0.00  0.00    +0.000 C 
ATOM     11  C13 UNL     1       2.136  -2.139  21.330  0.00  0.00    +0.000 C 
ATOM     12  C14 UNL     1       1.875  -0.767  21.189  0.00  0.00    +0.000 C 
BRANCH  12  13
ATOM     13  C15 UNL     1       1.961   0.051  22.403  0.00  0.00    +0.000 C 
ATOM     14  C16 UNL     1       3.017   0.816  22.690  0.00  0.00    +0.000 C 
ATOM     15  F1  UNL     1       4.107   0.876  21.904  0.00  0.00    +0.000 F 
ENDBRANCH  12  13
ENDBRANCH   6   7
BRANCH   1  16
ATOM     16  C4  UNL     1      -1.289   1.491  19.425  0.00  0.00    +0.000 C 
ATOM     17  O1  UNL     1      -1.556   2.534  20.028  0.00  0.00    +0.000 OA
BRANCH  16  19
ATOM     18  C1  UNL     1      -2.037  -0.545  20.662  0.00  0.00    +0.000 C 
ATOM     19  C2  UNL     1      -2.268   0.319  19.426  0.00  0.00    +0.000 C 
ATOM     20  C3  UNL     1      -2.094  -0.494  18.149  0.00  0.00    +0.000 C 
ENDBRANCH  16  19
ENDBRANCH   1  16
TORSDOF 4
ENDMDL
MODEL 8
REMARK VINA RESULT:    -5.628      3.980      5.978
REMARK INTER + INTRA:          -8.527
REMARK INTER:                  -6.800
REMARK INTRA:                  -1.727
REMARK UNBOUND:                -1.583
REMARK  Name = ligantes_geracao2\Derivado_024.pdb
REMARK  6 active torsions:
REMARK  status: ('A' for Active; 'I' for Inactive)
REMARK    1  A    between atoms: C1_1  and  C2_2
REMARK    2  A    between atoms: C2_2  and  C3_3
REMARK    3  A    between atoms: C2_2  and  C4_4
REMARK    4  A    between atoms: C4_4  and  C5_6
REMARK    5  A    between atoms: C9_11  and  C10_12
REMARK    6  A    between atoms: C14_17  and  C15_18
REMARK                            x       y       z     vdW  Elec       q    Type
REMARK                         _______ _______ _______ _____ _____    ______ ____
ROOT
ATOM      1  C5  UNL     1       1.800  -0.672  20.451  0.00  0.00    +0.000 C 
ATOM      2  C6  UNL     1       2.192  -0.383  21.898  0.00  0.00    +0.000 C 
ATOM      3 CL1  UNL     1       3.602   0.686  22.023  0.00  0.00    +0.000 Cl
ATOM      4  C7  UNL     1       2.487  -1.762  22.470  0.00  0.00    +0.000 C 
ATOM      5  C8  UNL     1       1.388  -2.640  21.880  0.00  0.00    +0.000 C 
ATOM      6  C9  UNL     1       1.003  -1.993  20.531  0.00  0.00    +0.000 C 
ENDROOT
BRANCH   6   7
ATOM      7  C10 UNL     1       1.145  -2.896  19.320  0.00  0.00    +0.000 C 
ATOM      8  C11 UNL     1       2.416  -3.418  19.047  0.00  0.00    +0.000 C 
ATOM      9  N1  UNL     1       2.727  -4.219  18.006  0.00  0.00    +0.000 NA
ATOM     10  C12 UNL     1       1.722  -4.539  17.173  0.00  0.00    +0.000 C 
ATOM     11  C13 UNL     1       0.424  -4.093  17.341  0.00  0.00    +0.000 C 
ATOM     12  C14 UNL     1       0.120  -3.259  18.427  0.00  0.00    +0.000 C 
BRANCH  12  13
ATOM     13  C15 UNL     1      -1.276  -2.835  18.566  0.00  0.00    +0.000 C 
ATOM     14  C16 UNL     1      -1.742  -1.692  18.057  0.00  0.00    +0.000 C 
ATOM     15  F1  UNL     1      -0.961  -0.815  17.401  0.00  0.00    +0.000 F 
ENDBRANCH  12  13
ENDBRANCH   6   7
BRANCH   1  16
ATOM     16  C4  UNL     1       1.009   0.453  19.793  0.00  0.00    +0.000 C 
ATOM     17  O1  UNL     1      -0.064   0.812  20.284  0.00  0.00    +0.000 OA
BRANCH  16  19
ATOM     18  C1  UNL     1       2.172   0.096  17.612  0.00  0.00    +0.000 C 
ATOM     19  C2  UNL     1       1.562   1.138  18.545  0.00  0.00    +0.000 C 
ATOM     20  C3  UNL     1       2.595   2.183  18.950  0.00  0.00    +0.000 C 
ENDBRANCH  16  19
ENDBRANCH   1  16
TORSDOF 4
ENDMDL
MODEL 9
REMARK VINA RESULT:    -5.503     25.964     27.470
REMARK INTER + INTRA:          -8.373
REMARK INTER:                  -7.309
REMARK INTRA:                  -1.064
REMARK UNBOUND:                -1.583
REMARK  Name = ligantes_geracao2\Derivado_024.pdb
REMARK  6 active torsions:
REMARK  status: ('A' for Active; 'I' for Inactive)
REMARK    1  A    between atoms: C1_1  and  C2_2
REMARK    2  A    between atoms: C2_2  and  C3_3
REMARK    3  A    between atoms: C2_2  and  C4_4
REMARK    4  A    between atoms: C4_4  and  C5_6
REMARK    5  A    between atoms: C9_11  and  C10_12
REMARK    6  A    between atoms: C14_17  and  C15_18
REMARK                            x       y       z     vdW  Elec       q    Type
REMARK                         _______ _______ _______ _____ _____    ______ ____
ROOT
ATOM      1  C5  UNL     1      18.720  -9.119   2.586  0.00  0.00    +0.000 C 
ATOM      2  C6  UNL     1      17.876 -10.070   3.432  0.00  0.00    +0.000 C 
ATOM      3 CL1  UNL     1      18.511 -11.726   3.437  0.00  0.00    +0.000 Cl
ATOM      4  C7  UNL     1      16.502 -10.003   2.781  0.00  0.00    +0.000 C 
ATOM      5  C8  UNL     1      16.330  -8.523   2.454  0.00  0.00    +0.000 C 
ATOM      6  C9  UNL     1      17.754  -7.966   2.236  0.00  0.00    +0.000 C 
ENDROOT
BRANCH   6   7
ATOM      7  C10 UNL     1      17.994  -7.324   0.882  0.00  0.00    +0.000 C 
ATOM      8  C11 UNL     1      17.902  -8.145  -0.249  0.00  0.00    +0.000 C 
ATOM      9  N1  UNL     1      18.103  -7.748  -1.524  0.00  0.00    +0.000 NA
ATOM     10  C12 UNL     1      18.412  -6.453  -1.708  0.00  0.00    +0.000 C 
ATOM     11  C13 UNL     1      18.524  -5.544  -0.673  0.00  0.00    +0.000 C 
ATOM     12  C14 UNL     1      18.314  -5.974   0.645  0.00  0.00    +0.000 C 
BRANCH  12  13
ATOM     13  C15 UNL     1      18.426  -4.961   1.699  0.00  0.00    +0.000 C 
ATOM     14  C16 UNL     1      19.593  -4.594   2.232  0.00  0.00    +0.000 C 
ATOM     15  F1  UNL     1      20.766  -5.146   1.870  0.00  0.00    +0.000 F 
ENDBRANCH  12  13
ENDBRANCH   6   7
BRANCH   1  16
ATOM     16  C4  UNL     1      19.985  -8.635   3.285  0.00  0.00    +0.000 C 
ATOM     17  O1  UNL     1      20.034  -7.486   3.731  0.00  0.00    +0.000 OA
BRANCH  16  19
ATOM     18  C1  UNL     1      21.219 -10.114   4.874  0.00  0.00    +0.000 C 
ATOM     19  C2  UNL     1      21.172  -9.582   3.445  0.00  0.00    +0.000 C 
ATOM     20  C3  UNL     1      22.461  -8.851   3.090  0.00  0.00    +0.000 C 
ENDBRANCH  16  19
ENDBRANCH   1  16
TORSDOF 4
ENDMDL
