MODEL 1
REMARK VINA RESULT:    -6.392      0.000      0.000
REMARK INTER + INTRA:          -9.948
REMARK INTER:                  -8.821
REMARK INTRA:                  -1.127
REMARK UNBOUND:                -1.127
REMARK  Name = ligantes_geracao2\Derivado_001.pdb
REMARK  10 active torsions:
REMARK  status: ('A' for Active; 'I' for Inactive)
REMARK    1  A    between atoms: C1_1  and  C2_2
REMARK    2  A    between atoms: C2_2  and  C3_3
REMARK    3  A    between atoms: C3_3  and  C4_4
REMARK    4  A    between atoms: C3_3  and  C5_5
REMARK    5  A    between atoms: C5_5  and  C6_6
REMARK    6  A    between atoms: C6_6  and  C7_8
REMARK    7  A    between atoms: C8_9  and  C9_10
REMARK    8  A    between atoms: C12_13  and  C13_14
REMARK    9  A    between atoms: C17_19  and  C18_20
REMARK   10  A    between atoms: N2_21  and  O2_22
REMARK                            x       y       z     vdW  Elec       q    Type
REMARK                         _______ _______ _______ _____ _____    ______ ____
ROOT
ATOM      1  C7  UNL     1      17.639  -5.665   0.215  0.00  0.00    +0.000 C 
ATOM      2  C8  UNL     1      17.910  -5.433  -1.281  0.00  0.00    +0.000 C 
ATOM      3  C9  UNL     1      18.798  -4.226  -1.590  0.00  0.00    +0.000 C 
ATOM      4  C10 UNL     1      16.493  -5.235  -1.825  0.00  0.00    +0.000 C 
ATOM      5  C11 UNL     1      15.752  -4.434  -0.757  0.00  0.00    +0.000 C 
ATOM      6  C12 UNL     1      16.538  -4.626   0.555  0.00  0.00    +0.000 C 
ENDROOT
BRANCH   6   7
ATOM      7  C13 UNL     1      15.642  -4.978   1.723  0.00  0.00    +0.000 C 
ATOM      8  C14 UNL     1      15.073  -6.247   1.834  0.00  0.00    +0.000 C 
ATOM      9  N1  UNL     1      14.324  -6.679   2.875  0.00  0.00    +0.000 NA
ATOM     10  C15 UNL     1      14.105  -5.803   3.873  0.00  0.00    +0.000 C 
ATOM     11  C16 UNL     1      14.580  -4.507   3.863  0.00  0.00    +0.000 C 
ATOM     12  C17 UNL     1      15.333  -4.086   2.762  0.00  0.00    +0.000 C 
BRANCH  12  13
ATOM     13  C18 UNL     1      15.723  -2.661   2.782  0.00  0.00    +0.000 C 
ATOM     14  N2  UNL     1      16.808  -2.243   3.352  0.00  0.00    +0.000 NA
BRANCH  14  15
ATOM     15  O2  UNL     1      16.916  -0.861   3.158  0.00  0.00    +0.000 OA
ATOM     16  H   UNL     1      16.162  -0.314   3.257  0.00  0.00    +0.000 HD
ENDBRANCH  14  15
ENDBRANCH  12  13
ENDBRANCH   6   7
BRANCH   1  17
ATOM     17  C6  UNL     1      18.881  -5.561   1.101  0.00  0.00    +0.000 C 
ATOM     18  O1  UNL     1      19.052  -4.618   1.872  0.00  0.00    +0.000 OA
BRANCH  17  19
ATOM     19  C5  UNL     1      19.857  -6.731   1.025  0.00  0.00    +0.000 C 
BRANCH  19  20
ATOM     20  C3  UNL     1      19.716  -7.736   2.182  0.00  0.00    +0.000 C 
ATOM     21  C4  UNL     1      18.249  -7.907   2.591  0.00  0.00    +0.000 C 
BRANCH  20  23
ATOM     22  C1  UNL     1      21.684  -8.343   3.752  0.00  0.00    +0.000 C 
ATOM     23  C2  UNL     1      20.596  -7.343   3.387  0.00  0.00    +0.000 C 
ENDBRANCH  20  23
ENDBRANCH  19  20
ENDBRANCH  17  19
ENDBRANCH   1  17
TORSDOF 7
ENDMDL
MODEL 2
REMARK VINA RESULT:    -6.378     22.102     25.158
REMARK INTER + INTRA:          -9.928
REMARK INTER:                  -8.723
REMARK INTRA:                  -1.205
REMARK UNBOUND:                -1.127
REMARK  Name = ligantes_geracao2\Derivado_001.pdb
REMARK  10 active torsions:
REMARK  status: ('A' for Active; 'I' for Inactive)
REMARK    1  A    between atoms: C1_1  and  C2_2
REMARK    2  A    between atoms: C2_2  and  C3_3
REMARK    3  A    between atoms: C3_3  and  C4_4
REMARK    4  A    between atoms: C3_3  and  C5_5
REMARK    5  A    between atoms: C5_5  and  C6_6
REMARK    6  A    between atoms: C6_6  and  C7_8
REMARK    7  A    between atoms: C8_9  and  C9_10
REMARK    8  A    between atoms: C12_13  and  C13_14
REMARK    9  A    between atoms: C17_19  and  C18_20
REMARK   10  A    between atoms: N2_21  and  O2_22
REMARK                            x       y       z     vdW  Elec       q    Type
REMARK                         _______ _______ _______ _____ _____    ______ ____
ROOT
ATOM      1  C7  UNL     1       1.613   1.072  20.806  0.00  0.00    +0.000 C 
ATOM      2  C8  UNL     1       2.259   0.738  22.161  0.00  0.00    +0.000 C 
ATOM      3  C9  UNL     1       3.789   0.773  22.165  0.00  0.00    +0.000 C 
ATOM      4  C10 UNL     1       1.734  -0.676  22.416  0.00  0.00    +0.000 C 
ATOM      5  C11 UNL     1       1.740  -1.367  21.053  0.00  0.00    +0.000 C 
ATOM      6  C12 UNL     1       1.757  -0.244  19.997  0.00  0.00    +0.000 C 
ENDROOT
BRANCH   6   7
ATOM      7  C13 UNL     1       0.731  -0.459  18.905  0.00  0.00    +0.000 C 
ATOM      8  C14 UNL     1      -0.576   0.009  19.046  0.00  0.00    +0.000 C 
ATOM      9  N1  UNL     1      -1.539  -0.067  18.099  0.00  0.00    +0.000 NA
ATOM     10  C15 UNL     1      -1.204  -0.653  16.935  0.00  0.00    +0.000 C 
ATOM     11  C16 UNL     1       0.042  -1.190  16.686  0.00  0.00    +0.000 C 
ATOM     12  C17 UNL     1       1.009  -1.114  17.694  0.00  0.00    +0.000 C 
BRANCH  12  13
ATOM     13  C18 UNL     1       2.284  -1.793  17.388  0.00  0.00    +0.000 C 
ATOM     14  N2  UNL     1       2.523  -3.018  17.735  0.00  0.00    +0.000 NA
BRANCH  14  15
ATOM     15  O2  UNL     1       3.789  -3.383  17.262  0.00  0.00    +0.000 OA
ATOM     16  H   UNL     1       3.944  -4.257  16.964  0.00  0.00    +0.000 HD
ENDBRANCH  14  15
ENDBRANCH  12  13
ENDBRANCH   6   7
BRANCH   1  17
ATOM     17  C6  UNL     1       2.211   2.294  20.109  0.00  0.00    +0.000 C 
ATOM     18  O1  UNL     1       2.898   2.192  19.094  0.00  0.00    +0.000 OA
BRANCH  17  19
ATOM     19  C5  UNL     1       1.845   3.650  20.704  0.00  0.00    +0.000 C 
BRANCH  19  20
ATOM     20  C3  UNL     1       3.055   4.459  21.202  0.00  0.00    +0.000 C 
ATOM     21  C4  UNL     1       3.288   4.241  22.701  0.00  0.00    +0.000 C 
BRANCH  20  23
ATOM     22  C1  UNL     1       1.933   6.285  19.748  0.00  0.00    +0.000 C 
ATOM     23  C2  UNL     1       2.915   5.958  20.865  0.00  0.00    +0.000 C 
ENDBRANCH  20  23
ENDBRANCH  19  20
ENDBRANCH  17  19
ENDBRANCH   1  17
TORSDOF 7
ENDMDL
MODEL 3
REMARK VINA RESULT:    -6.213      2.196      4.907
REMARK INTER + INTRA:          -9.701
REMARK INTER:                  -7.939
REMARK INTRA:                  -1.761
REMARK UNBOUND:                -1.127
REMARK  Name = ligantes_geracao2\Derivado_001.pdb
REMARK  10 active torsions:
REMARK  status: ('A' for Active; 'I' for Inactive)
REMARK    1  A    between atoms: C1_1  and  C2_2
REMARK    2  A    between atoms: C2_2  and  C3_3
REMARK    3  A    between atoms: C3_3  and  C4_4
REMARK    4  A    between atoms: C3_3  and  C5_5
REMARK    5  A    between atoms: C5_5  and  C6_6
REMARK    6  A    between atoms: C6_6  and  C7_8
REMARK    7  A    between atoms: C8_9  and  C9_10
REMARK    8  A    between atoms: C12_13  and  C13_14
REMARK    9  A    between atoms: C17_19  and  C18_20
REMARK   10  A    between atoms: N2_21  and  O2_22
REMARK                            x       y       z     vdW  Elec       q    Type
REMARK                         _______ _______ _______ _____ _____    ______ ____
ROOT
ATOM      1  C7  UNL     1      18.780  -8.147   2.071  0.00  0.00    +0.000 C 
ATOM      2  C8  UNL     1      19.903  -8.628   3.006  0.00  0.00    +0.000 C 
ATOM      3  C9  UNL     1      19.544  -8.617   4.494  0.00  0.00    +0.000 C 
ATOM      4  C10 UNL     1      21.015  -7.625   2.695  0.00  0.00    +0.000 C 
ATOM      5  C11 UNL     1      20.314  -6.281   2.502  0.00  0.00    +0.000 C 
ATOM      6  C12 UNL     1      18.840  -6.602   2.189  0.00  0.00    +0.000 C 
ENDROOT
BRANCH   6   7
ATOM      7  C13 UNL     1      18.319  -5.832   0.995  0.00  0.00    +0.000 C 
ATOM      8  C14 UNL     1      18.694  -6.180  -0.303  0.00  0.00    +0.000 C 
ATOM      9  N1  UNL     1      18.224  -5.604  -1.433  0.00  0.00    +0.000 NA
ATOM     10  C15 UNL     1      17.333  -4.607  -1.284  0.00  0.00    +0.000 C 
ATOM     11  C16 UNL     1      16.911  -4.144  -0.054  0.00  0.00    +0.000 C 
ATOM     12  C17 UNL     1      17.432  -4.747   1.095  0.00  0.00    +0.000 C 
BRANCH  12  13
ATOM     13  C18 UNL     1      17.005  -4.134   2.369  0.00  0.00    +0.000 C 
ATOM     14  N2  UNL     1      16.093  -3.217   2.431  0.00  0.00    +0.000 NA
BRANCH  14  15
ATOM     15  O2  UNL     1      15.884  -2.878   3.773  0.00  0.00    +0.000 OA
ATOM     16  H   UNL     1      15.984  -1.990   4.053  0.00  0.00    +0.000 HD
ENDBRANCH  14  15
ENDBRANCH  12  13
ENDBRANCH   6   7
BRANCH   1  17
ATOM     17  C6  UNL     1      17.406  -8.739   2.385  0.00  0.00    +0.000 C 
ATOM     18  O1  UNL     1      17.147  -9.924   2.184  0.00  0.00    +0.000 OA
BRANCH  17  19
ATOM     19  C5  UNL     1      16.400  -7.790   3.030  0.00  0.00    +0.000 C 
BRANCH  19  20
ATOM     20  C3  UNL     1      15.046  -7.729   2.302  0.00  0.00    +0.000 C 
ATOM     21  C4  UNL     1      15.237  -7.676   0.782  0.00  0.00    +0.000 C 
BRANCH  20  23
ATOM     22  C1  UNL     1      14.488  -6.077   4.217  0.00  0.00    +0.000 C 
ATOM     23  C2  UNL     1      14.184  -6.552   2.803  0.00  0.00    +0.000 C 
ENDBRANCH  20  23
ENDBRANCH  19  20
ENDBRANCH  17  19
ENDBRANCH   1  17
TORSDOF 7
ENDMDL
MODEL 4
REMARK VINA RESULT:    -6.173     22.100     24.820
REMARK INTER + INTRA:          -9.646
REMARK INTER:                  -8.201
REMARK INTRA:                  -1.445
REMARK UNBOUND:                -1.127
REMARK  Name = ligantes_geracao2\Derivado_001.pdb
REMARK  10 active torsions:
REMARK  status: ('A' for Active; 'I' for Inactive)
REMARK    1  A    between atoms: C1_1  and  C2_2
REMARK    2  A    between atoms: C2_2  and  C3_3
REMARK    3  A    between atoms: C3_3  and  C4_4
REMARK    4  A    between atoms: C3_3  and  C5_5
REMARK    5  A    between atoms: C5_5  and  C6_6
REMARK    6  A    between atoms: C6_6  and  C7_8
REMARK    7  A    between atoms: C8_9  and  C9_10
REMARK    8  A    between atoms: C12_13  and  C13_14
REMARK    9  A    between atoms: C17_19  and  C18_20
REMARK   10  A    between atoms: N2_21  and  O2_22
REMARK                            x       y       z     vdW  Elec       q    Type
REMARK                         _______ _______ _______ _____ _____    ______ ____
ROOT
ATOM      1  C7  UNL     1       1.437   0.850  20.979  0.00  0.00    +0.000 C 
ATOM      2  C8  UNL     1       2.235   0.547  22.259  0.00  0.00    +0.000 C 
ATOM      3  C9  UNL     1       3.742   0.785  22.144  0.00  0.00    +0.000 C 
ATOM      4  C10 UNL     1       1.920  -0.934  22.478  0.00  0.00    +0.000 C 
ATOM      5  C11 UNL     1       1.898  -1.558  21.083  0.00  0.00    +0.000 C 
ATOM      6  C12 UNL     1       1.679  -0.399  20.092  0.00  0.00    +0.000 C 
ENDROOT
BRANCH   6   7
ATOM      7  C13 UNL     1       0.600  -0.701  19.075  0.00  0.00    +0.000 C 
ATOM      8  C14 UNL     1      -0.742  -0.440  19.353  0.00  0.00    +0.000 C 
ATOM      9  N1  UNL     1      -1.766  -0.603  18.484  0.00  0.00    +0.000 NA
ATOM     10  C15 UNL     1      -1.458  -1.068  17.260  0.00  0.00    +0.000 C 
ATOM     11  C16 UNL     1      -0.175  -1.400  16.874  0.00  0.00    +0.000 C 
ATOM     12  C17 UNL     1       0.858  -1.239  17.803  0.00  0.00    +0.000 C 
BRANCH  12  13
ATOM     13  C18 UNL     1       2.184  -1.706  17.349  0.00  0.00    +0.000 C 
ATOM     14  N2  UNL     1       2.537  -2.951  17.389  0.00  0.00    +0.000 NA
BRANCH  14  15
ATOM     15  O2  UNL     1       3.823  -3.073  16.849  0.00  0.00    +0.000 OA
ATOM     16  H   UNL     1       3.993  -2.784  15.975  0.00  0.00    +0.000 HD
ENDBRANCH  14  15
ENDBRANCH  12  13
ENDBRANCH   6   7
BRANCH   1  17
ATOM     17  C6  UNL     1       1.810   2.169  20.304  0.00  0.00    +0.000 C 
ATOM     18  O1  UNL     1       1.844   3.230  20.926  0.00  0.00    +0.000 OA
BRANCH  17  19
ATOM     19  C5  UNL     1       2.208   2.081  18.834  0.00  0.00    +0.000 C 
BRANCH  19  20
ATOM     20  C3  UNL     1       1.253   2.825  17.885  0.00  0.00    +0.000 C 
ATOM     21  C4  UNL     1      -0.132   3.000  18.518  0.00  0.00    +0.000 C 
BRANCH  20  23
ATOM     22  C1  UNL     1       0.054   2.637  15.596  0.00  0.00    +0.000 C 
ATOM     23  C2  UNL     1       1.161   2.130  16.511  0.00  0.00    +0.000 C 
ENDBRANCH  20  23
ENDBRANCH  19  20
ENDBRANCH  17  19
ENDBRANCH   1  17
TORSDOF 7
ENDMDL
MODEL 5
REMARK VINA RESULT:    -6.135      2.627      4.566
REMARK INTER + INTRA:          -9.593
REMARK INTER:                  -8.292
REMARK INTRA:                  -1.300
REMARK UNBOUND:                -1.127
REMARK  Name = ligantes_geracao2\Derivado_001.pdb
REMARK  10 active torsions:
REMARK  status: ('A' for Active; 'I' for Inactive)
REMARK    1  A    between atoms: C1_1  and  C2_2
REMARK    2  A    between atoms: C2_2  and  C3_3
REMARK    3  A    between atoms: C3_3  and  C4_4
REMARK    4  A    between atoms: C3_3  and  C5_5
REMARK    5  A    between atoms: C5_5  and  C6_6
REMARK    6  A    between atoms: C6_6  and  C7_8
REMARK    7  A    between atoms: C8_9  and  C9_10
REMARK    8  A    between atoms: C12_13  and  C13_14
REMARK    9  A    between atoms: C17_19  and  C18_20
REMARK   10  A    between atoms: N2_21  and  O2_22
REMARK                            x       y       z     vdW  Elec       q    Type
REMARK                         _______ _______ _______ _____ _____    ______ ____
ROOT
ATOM      1  C7  UNL     1      18.785  -7.802   1.878  0.00  0.00    +0.000 C 
ATOM      2  C8  UNL     1      19.906  -8.360   2.771  0.00  0.00    +0.000 C 
ATOM      3  C9  UNL     1      19.523  -8.540   4.241  0.00  0.00    +0.000 C 
ATOM      4  C10 UNL     1      20.993  -7.295   2.605  0.00  0.00    +0.000 C 
ATOM      5  C11 UNL     1      20.253  -5.958   2.562  0.00  0.00    +0.000 C 
ATOM      6  C12 UNL     1      18.795  -6.281   2.183  0.00  0.00    +0.000 C 
ENDROOT
BRANCH   6   7
ATOM      7  C13 UNL     1      18.270  -5.387   1.080  0.00  0.00    +0.000 C 
ATOM      8  C14 UNL     1      18.972  -5.235  -0.116  0.00  0.00    +0.000 C 
ATOM      9  N1  UNL     1      18.549  -4.522  -1.185  0.00  0.00    +0.000 NA
ATOM     10  C15 UNL     1      17.360  -3.904  -1.073  0.00  0.00    +0.000 C 
ATOM     11  C16 UNL     1      16.587  -3.945   0.070  0.00  0.00    +0.000 C 
ATOM     12  C17 UNL     1      17.064  -4.673   1.165  0.00  0.00    +0.000 C 
BRANCH  12  13
ATOM     13  C18 UNL     1      16.228  -4.590   2.380  0.00  0.00    +0.000 C 
ATOM     14  N2  UNL     1      16.121  -3.507   3.081  0.00  0.00    +0.000 NA
BRANCH  14  15
ATOM     15  O2  UNL     1      15.227  -3.736   4.134  0.00  0.00    +0.000 OA
ATOM     16  H   UNL     1      14.541  -4.366   4.037  0.00  0.00    +0.000 HD
ENDBRANCH  14  15
ENDBRANCH  12  13
ENDBRANCH   6   7
BRANCH   1  17
ATOM     17  C6  UNL     1      17.425  -8.466   2.091  0.00  0.00    +0.000 C 
ATOM     18  O1  UNL     1      16.618  -8.044   2.918  0.00  0.00    +0.000 OA
BRANCH  17  19
ATOM     19  C5  UNL     1      17.099  -9.637   1.168  0.00  0.00    +0.000 C 
BRANCH  19  20
ATOM     20  C3  UNL     1      17.944 -10.894   1.436  0.00  0.00    +0.000 C 
ATOM     21  C4  UNL     1      17.691 -11.968   0.372  0.00  0.00    +0.000 C 
BRANCH  20  23
ATOM     22  C1  UNL     1      18.812 -12.350   3.395  0.00  0.00    +0.000 C 
ATOM     23  C2  UNL     1      17.712 -11.444   2.859  0.00  0.00    +0.000 C 
ENDBRANCH  20  23
ENDBRANCH  19  20
ENDBRANCH  17  19
ENDBRANCH   1  17
TORSDOF 7
ENDMDL
MODEL 6
REMARK VINA RESULT:    -6.104      3.718      6.213
REMARK INTER + INTRA:          -9.551
REMARK INTER:                  -8.361
REMARK INTRA:                  -1.190
REMARK UNBOUND:                -1.127
REMARK  Name = ligantes_geracao2\Derivado_001.pdb
REMARK  10 active torsions:
REMARK  status: ('A' for Active; 'I' for Inactive)
REMARK    1  A    between atoms: C1_1  and  C2_2
REMARK    2  A    between atoms: C2_2  and  C3_3
REMARK    3  A    between atoms: C3_3  and  C4_4
REMARK    4  A    between atoms: C3_3  and  C5_5
REMARK    5  A    between atoms: C5_5  and  C6_6
REMARK    6  A    between atoms: C6_6  and  C7_8
REMARK    7  A    between atoms: C8_9  and  C9_10
REMARK    8  A    between atoms: C12_13  and  C13_14
REMARK    9  A    between atoms: C17_19  and  C18_20
REMARK   10  A    between atoms: N2_21  and  O2_22
REMARK                            x       y       z     vdW  Elec       q    Type
REMARK                         _______ _______ _______ _____ _____    ______ ____
ROOT
ATOM      1  C7  UNL     1      17.578  -9.466   1.209  0.00  0.00    +0.000 C 
ATOM      2  C8  UNL     1      16.065  -9.700   1.363  0.00  0.00    +0.000 C 
ATOM      3  C9  UNL     1      15.198  -8.466   1.105  0.00  0.00    +0.000 C 
ATOM      4  C10 UNL     1      15.969 -10.153   2.822  0.00  0.00    +0.000 C 
ATOM      5  C11 UNL     1      16.982  -9.299   3.584  0.00  0.00    +0.000 C 
ATOM      6  C12 UNL     1      17.979  -8.769   2.535  0.00  0.00    +0.000 C 
ENDROOT
BRANCH   6   7
ATOM      7  C13 UNL     1      19.420  -8.949   2.961  0.00  0.00    +0.000 C 
ATOM      8  C14 UNL     1      19.918 -10.209   3.293  0.00  0.00    +0.000 C 
ATOM      9  N1  UNL     1      21.205 -10.481   3.611  0.00  0.00    +0.000 NA
ATOM     10  C15 UNL     1      22.063  -9.445   3.616  0.00  0.00    +0.000 C 
ATOM     11  C16 UNL     1      21.687  -8.145   3.344  0.00  0.00    +0.000 C 
ATOM     12  C17 UNL     1      20.345  -7.895   3.040  0.00  0.00    +0.000 C 
BRANCH  12  13
ATOM     13  C18 UNL     1      20.003  -6.470   2.854  0.00  0.00    +0.000 C 
ATOM     14  N2  UNL     1      20.458  -5.766   1.866  0.00  0.00    +0.000 NA
BRANCH  14  15
ATOM     15  O2  UNL     1      19.918  -4.477   1.944  0.00  0.00    +0.000 OA
ATOM     16  H   UNL     1      19.606  -4.148   2.764  0.00  0.00    +0.000 HD
ENDBRANCH  14  15
ENDBRANCH  12  13
ENDBRANCH   6   7
BRANCH   1  17
ATOM     17  C6  UNL     1      17.966  -8.682  -0.044  0.00  0.00    +0.000 C 
ATOM     18  O1  UNL     1      18.349  -7.514   0.012  0.00  0.00    +0.000 OA
BRANCH  17  19
ATOM     19  C5  UNL     1      17.922  -9.455  -1.359  0.00  0.00    +0.000 C 
BRANCH  19  20
ATOM     20  C3  UNL     1      17.024  -8.810  -2.430  0.00  0.00    +0.000 C 
ATOM     21  C4  UNL     1      16.138  -9.857  -3.113  0.00  0.00    +0.000 C 
BRANCH  20  23
ATOM     22  C1  UNL     1      17.996  -8.668  -4.827  0.00  0.00    +0.000 C 
ATOM     23  C2  UNL     1      17.851  -8.013  -3.460  0.00  0.00    +0.000 C 
ENDBRANCH  20  23
ENDBRANCH  19  20
ENDBRANCH  17  19
ENDBRANCH   1  17
TORSDOF 7
ENDMDL
MODEL 7
REMARK VINA RESULT:    -6.061     21.677     25.057
REMARK INTER + INTRA:          -9.491
REMARK INTER:                  -8.228
REMARK INTRA:                  -1.263
REMARK UNBOUND:                -1.127
REMARK  Name = ligantes_geracao2\Derivado_001.pdb
REMARK  10 active torsions:
REMARK  status: ('A' for Active; 'I' for Inactive)
REMARK    1  A    between atoms: C1_1  and  C2_2
REMARK    2  A    between atoms: C2_2  and  C3_3
REMARK    3  A    between atoms: C3_3  and  C4_4
REMARK    4  A    between atoms: C3_3  and  C5_5
REMARK    5  A    between atoms: C5_5  and  C6_6
REMARK    6  A    between atoms: C6_6  and  C7_8
REMARK    7  A    between atoms: C8_9  and  C9_10
REMARK    8  A    between atoms: C12_13  and  C13_14
REMARK    9  A    between atoms: C17_19  and  C18_20
REMARK   10  A    between atoms: N2_21  and  O2_22
REMARK                            x       y       z     vdW  Elec       q    Type
REMARK                         _______ _______ _______ _____ _____    ______ ____
ROOT
ATOM      1  C7  UNL     1      -0.130  -1.336  21.062  0.00  0.00    +0.000 C 
ATOM      2  C8  UNL     1      -1.573  -1.427  20.535  0.00  0.00    +0.000 C 
ATOM      3  C9  UNL     1      -1.713  -2.095  19.166  0.00  0.00    +0.000 C 
ATOM      4  C10 UNL     1      -1.975   0.049  20.478  0.00  0.00    +0.000 C 
ATOM      5  C11 UNL     1      -0.730   0.795  20.002  0.00  0.00    +0.000 C 
ATOM      6  C12 UNL     1       0.468  -0.132  20.288  0.00  0.00    +0.000 C 
ENDROOT
BRANCH   6   7
ATOM      7  C13 UNL     1       1.608   0.588  20.975  0.00  0.00    +0.000 C 
ATOM      8  C14 UNL     1       1.812   0.463  22.349  0.00  0.00    +0.000 C 
ATOM      9  N1  UNL     1       2.843   1.003  23.039  0.00  0.00    +0.000 NA
ATOM     10  C15 UNL     1       3.732   1.729  22.336  0.00  0.00    +0.000 C 
ATOM     11  C16 UNL     1       3.621   1.959  20.980  0.00  0.00    +0.000 C 
ATOM     12  C17 UNL     1       2.532   1.404  20.301  0.00  0.00    +0.000 C 
BRANCH  12  13
ATOM     13  C18 UNL     1       2.432   1.774  18.874  0.00  0.00    +0.000 C 
ATOM     14  N2  UNL     1       2.201   2.987  18.482  0.00  0.00    +0.000 NA
BRANCH  14  15
ATOM     15  O2  UNL     1       2.211   3.019  17.083  0.00  0.00    +0.000 OA
ATOM     16  H   UNL     1       2.118   2.225  16.596  0.00  0.00    +0.000 HD
ENDBRANCH  14  15
ENDBRANCH  12  13
ENDBRANCH   6   7
BRANCH   1  17
ATOM     17  C6  UNL     1       0.674  -2.627  20.913  0.00  0.00    +0.000 C 
ATOM     18  O1  UNL     1       0.300  -3.687  21.411  0.00  0.00    +0.000 OA
BRANCH  17  19
ATOM     19  C5  UNL     1       1.929  -2.539  20.049  0.00  0.00    +0.000 C 
BRANCH  19  20
ATOM     20  C3  UNL     1       1.758  -3.134  18.640  0.00  0.00    +0.000 C 
ATOM     21  C4  UNL     1       2.574  -4.422  18.481  0.00  0.00    +0.000 C 
BRANCH  20  23
ATOM     22  C1  UNL     1       3.195  -2.536  16.570  0.00  0.00    +0.000 C 
ATOM     23  C2  UNL     1       2.106  -2.107  17.543  0.00  0.00    +0.000 C 
ENDBRANCH  20  23
ENDBRANCH  19  20
ENDBRANCH  17  19
ENDBRANCH   1  17
TORSDOF 7
ENDMDL
MODEL 8
REMARK VINA RESULT:    -5.988     23.181     25.484
REMARK INTER + INTRA:          -9.390
REMARK INTER:                  -8.376
REMARK INTRA:                  -1.014
REMARK UNBOUND:                -1.127
REMARK  Name = ligantes_geracao2\Derivado_001.pdb
REMARK  10 active torsions:
REMARK  status: ('A' for Active; 'I' for Inactive)
REMARK    1  A    between atoms: C1_1  and  C2_2
REMARK    2  A    between atoms: C2_2  and  C3_3
REMARK    3  A    between atoms: C3_3  and  C4_4
REMARK    4  A    between atoms: C3_3  and  C5_5
REMARK    5  A    between atoms: C5_5  and  C6_6
REMARK    6  A    between atoms: C6_6  and  C7_8
REMARK    7  A    between atoms: C8_9  and  C9_10
REMARK    8  A    between atoms: C12_13  and  C13_14
REMARK    9  A    between atoms: C17_19  and  C18_20
REMARK   10  A    between atoms: N2_21  and  O2_22
REMARK                            x       y       z     vdW  Elec       q    Type
REMARK                         _______ _______ _______ _____ _____    ______ ____
ROOT
ATOM      1  C7  UNL     1       2.045   0.961  18.841  0.00  0.00    +0.000 C 
ATOM      2  C8  UNL     1       2.097   1.661  17.472  0.00  0.00    +0.000 C 
ATOM      3  C9  UNL     1       1.324   2.980  17.398  0.00  0.00    +0.000 C 
ATOM      4  C10 UNL     1       1.479   0.601  16.558  0.00  0.00    +0.000 C 
ATOM      5  C11 UNL     1       0.350  -0.032  17.370  0.00  0.00    +0.000 C 
ATOM      6  C12 UNL     1       0.654   0.275  18.849  0.00  0.00    +0.000 C 
ENDROOT
BRANCH   6   7
ATOM      7  C13 UNL     1       0.531  -0.947  19.733  0.00  0.00    +0.000 C 
ATOM      8  C14 UNL     1       1.538  -1.912  19.769  0.00  0.00    +0.000 C 
ATOM      9  N1  UNL     1       1.554  -2.995  20.579  0.00  0.00    +0.000 NA
ATOM     10  C15 UNL     1       0.504  -3.153  21.405  0.00  0.00    +0.000 C 
ATOM     11  C16 UNL     1      -0.573  -2.291  21.438  0.00  0.00    +0.000 C 
ATOM     12  C17 UNL     1      -0.569  -1.193  20.572  0.00  0.00    +0.000 C 
BRANCH  12  13
ATOM     13  C18 UNL     1      -1.797  -0.373  20.599  0.00  0.00    +0.000 C 
ATOM     14  N2  UNL     1      -2.977  -0.888  20.734  0.00  0.00    +0.000 NA
BRANCH  14  15
ATOM     15  O2  UNL     1      -3.920   0.146  20.769  0.00  0.00    +0.000 OA
ATOM     16  H   UNL     1      -3.926   0.797  20.095  0.00  0.00    +0.000 HD
ENDBRANCH  14  15
ENDBRANCH  12  13
ENDBRANCH   6   7
BRANCH   1  17
ATOM     17  C6  UNL     1       2.283   1.891  20.030  0.00  0.00    +0.000 C 
ATOM     18  O1  UNL     1       1.368   2.528  20.551  0.00  0.00    +0.000 OA
BRANCH  17  19
ATOM     19  C5  UNL     1       3.706   1.927  20.579  0.00  0.00    +0.000 C 
BRANCH  19  20
ATOM     20  C3  UNL     1       3.811   1.536  22.063  0.00  0.00    +0.000 C 
ATOM     21  C4  UNL     1       2.832   0.410  22.410  0.00  0.00    +0.000 C 
BRANCH  20  23
ATOM     22  C1  UNL     1       3.099   2.440  24.383  0.00  0.00    +0.000 C 
ATOM     23  C2  UNL     1       3.618   2.756  22.987  0.00  0.00    +0.000 C 
ENDBRANCH  20  23
ENDBRANCH  19  20
ENDBRANCH  17  19
ENDBRANCH   1  17
TORSDOF 7
ENDMDL
MODEL 9
REMARK VINA RESULT:    -5.755     21.533     24.927
REMARK INTER + INTRA:          -9.070
REMARK INTER:                  -7.719
REMARK INTRA:                  -1.350
REMARK UNBOUND:                -1.127
REMARK  Name = ligantes_geracao2\Derivado_001.pdb
REMARK  10 active torsions:
REMARK  status: ('A' for Active; 'I' for Inactive)
REMARK    1  A    between atoms: C1_1  and  C2_2
REMARK    2  A    between atoms: C2_2  and  C3_3
REMARK    3  A    between atoms: C3_3  and  C4_4
REMARK    4  A    between atoms: C3_3  and  C5_5
REMARK    5  A    between atoms: C5_5  and  C6_6
REMARK    6  A    between atoms: C6_6  and  C7_8
REMARK    7  A    between atoms: C8_9  and  C9_10
REMARK    8  A    between atoms: C12_13  and  C13_14
REMARK    9  A    between atoms: C17_19  and  C18_20
REMARK   10  A    between atoms: N2_21  and  O2_22
REMARK                            x       y       z     vdW  Elec       q    Type
REMARK                         _______ _______ _______ _____ _____    ______ ____
ROOT
ATOM      1  C7  UNL     1       1.477  -1.204  19.984  0.00  0.00    +0.000 C 
ATOM      2  C8  UNL     1       1.708  -2.372  20.958  0.00  0.00    +0.000 C 
ATOM      3  C9  UNL     1       0.456  -3.187  21.288  0.00  0.00    +0.000 C 
ATOM      4  C10 UNL     1       2.240  -1.644  22.194  0.00  0.00    +0.000 C 
ATOM      5  C11 UNL     1       1.436  -0.347  22.284  0.00  0.00    +0.000 C 
ATOM      6  C12 UNL     1       0.856  -0.098  20.878  0.00  0.00    +0.000 C 
ENDROOT
BRANCH   6   7
ATOM      7  C13 UNL     1       1.068   1.324  20.406  0.00  0.00    +0.000 C 
ATOM      8  C14 UNL     1       2.271   1.989  20.649  0.00  0.00    +0.000 C 
ATOM      9  N1  UNL     1       2.583   3.227  20.203  0.00  0.00    +0.000 NA
ATOM     10  C15 UNL     1       1.647   3.867  19.478  0.00  0.00    +0.000 C 
ATOM     11  C16 UNL     1       0.405   3.334  19.201  0.00  0.00    +0.000 C 
ATOM     12  C17 UNL     1       0.106   2.060  19.695  0.00  0.00    +0.000 C 
BRANCH  12  13
ATOM     13  C18 UNL     1      -1.274   1.599  19.439  0.00  0.00    +0.000 C 
ATOM     14  N2  UNL     1      -1.709   1.329  18.249  0.00  0.00    +0.000 NA
BRANCH  14  15
ATOM     15  O2  UNL     1      -3.030   0.876  18.344  0.00  0.00    +0.000 OA
ATOM     16  H   UNL     1      -3.225  -0.032  18.218  0.00  0.00    +0.000 HD
ENDBRANCH  14  15
ENDBRANCH  12  13
ENDBRANCH   6   7
BRANCH   1  17
ATOM     17  C6  UNL     1       0.627  -1.562  18.765  0.00  0.00    +0.000 C 
ATOM     18  O1  UNL     1      -0.574  -1.807  18.859  0.00  0.00    +0.000 OA
BRANCH  17  19
ATOM     19  C5  UNL     1       1.342  -1.526  17.418  0.00  0.00    +0.000 C 
BRANCH  19  20
ATOM     20  C3  UNL     1       2.668  -2.307  17.395  0.00  0.00    +0.000 C 
ATOM     21  C4  UNL     1       3.503  -1.942  16.163  0.00  0.00    +0.000 C 
BRANCH  20  23
ATOM     22  C1  UNL     1       3.283  -4.557  18.520  0.00  0.00    +0.000 C 
ATOM     23  C2  UNL     1       2.433  -3.829  17.487  0.00  0.00    +0.000 C 
ENDBRANCH  20  23
ENDBRANCH  19  20
ENDBRANCH  17  19
ENDBRANCH   1  17
TORSDOF 7
ENDMDL
