MODEL 1
REMARK VINA RESULT:    -6.101      0.000      0.000
REMARK INTER + INTRA:          -9.443
REMARK INTER:                  -7.884
REMARK INTRA:                  -1.559
REMARK UNBOUND:                -1.559
REMARK  Name = ligantes_geracao2\Derivado_019.pdb
REMARK  7 active torsions:
REMARK  status: ('A' for Active; 'I' for Inactive)
REMARK    1  A    between atoms: C1_1  and  C2_2
REMARK    2  A    between atoms: C2_2  and  C3_3
REMARK    3  A    between atoms: C3_3  and  C4_4
REMARK    4  A    between atoms: C3_3  and  C5_5
REMARK    5  A    between atoms: C5_5  and  C6_7
REMARK    6  A    between atoms: C10_12  and  C11_13
REMARK    7  A    between atoms: C15_18  and  C16_19
REMARK                            x       y       z     vdW  Elec       q    Type
REMARK                         _______ _______ _______ _____ _____    ______ ____
ROOT
ATOM      1  C6  UNL     1       1.761  -0.879  20.653  0.00  0.00    +0.000 C 
ATOM      2  C7  UNL     1       1.143  -1.407  21.936  0.00  0.00    +0.000 C 
ATOM      3  F1  UNL     1       2.050  -1.355  22.942  0.00  0.00    +0.000 F 
ATOM      4  C8  UNL     1       0.814  -2.851  21.611  0.00  0.00    +0.000 C 
ATOM      5  C9  UNL     1       0.289  -2.798  20.182  0.00  0.00    +0.000 C 
ATOM      6  C10 UNL     1       0.947  -1.562  19.535  0.00  0.00    +0.000 C 
ENDROOT
BRANCH   6   7
ATOM      7  C11 UNL     1       1.761  -1.802  18.277  0.00  0.00    +0.000 C 
ATOM      8  C12 UNL     1       2.457  -3.015  18.185  0.00  0.00    +0.000 C 
ATOM      9  N1  UNL     1       3.212  -3.400  17.134  0.00  0.00    +0.000 NA
ATOM     10  C13 UNL     1       3.292  -2.545  16.101  0.00  0.00    +0.000 C 
ATOM     11  C14 UNL     1       2.646  -1.323  16.074  0.00  0.00    +0.000 C 
ATOM     12  C15 UNL     1       1.866  -0.937  17.173  0.00  0.00    +0.000 C 
BRANCH  12  13
ATOM     13  C16 UNL     1       1.175   0.352  17.085  0.00  0.00    +0.000 C 
ATOM     14  C17 UNL     1       1.832   1.513  17.051  0.00  0.00    +0.000 C 
ATOM     15  F2  UNL     1       1.173   2.683  16.968  0.00  0.00    +0.000 F 
ENDBRANCH  12  13
ENDBRANCH   6   7
BRANCH   1  16
ATOM     16  C5  UNL     1       1.624   0.633  20.594  0.00  0.00    +0.000 C 
ATOM     17  O1  UNL     1       0.514   1.163  20.524  0.00  0.00    +0.000 OA
BRANCH  16  18
ATOM     18  C3  UNL     1       2.915   1.453  20.618  0.00  0.00    +0.000 C 
ATOM     19  C4  UNL     1       2.627   2.941  20.422  0.00  0.00    +0.000 C 
BRANCH  18  21
ATOM     20  C1  UNL     1       3.222   1.851  23.144  0.00  0.00    +0.000 C 
ATOM     21  C2  UNL     1       3.738   1.170  21.883  0.00  0.00    +0.000 C 
ENDBRANCH  18  21
ENDBRANCH  16  18
ENDBRANCH   1  16
TORSDOF 5
ENDMDL
MODEL 2
REMARK VINA RESULT:    -6.082      2.759      5.401
REMARK INTER + INTRA:          -9.419
REMARK INTER:                  -8.254
REMARK INTRA:                  -1.165
REMARK UNBOUND:                -1.559
REMARK  Name = ligantes_geracao2\Derivado_019.pdb
REMARK  7 active torsions:
REMARK  status: ('A' for Active; 'I' for Inactive)
REMARK    1  A    between atoms: C1_1  and  C2_2
REMARK    2  A    between atoms: C2_2  and  C3_3
REMARK    3  A    between atoms: C3_3  and  C4_4
REMARK    4  A    between atoms: C3_3  and  C5_5
REMARK    5  A    between atoms: C5_5  and  C6_7
REMARK    6  A    between atoms: C10_12  and  C11_13
REMARK    7  A    between atoms: C15_18  and  C16_19
REMARK                            x       y       z     vdW  Elec       q    Type
REMARK                         _______ _______ _______ _____ _____    ______ ____
ROOT
ATOM      1  C6  UNL     1       1.523   0.539  19.768  0.00  0.00    +0.000 C 
ATOM      2  C7  UNL     1       1.522   0.000  18.349  0.00  0.00    +0.000 C 
ATOM      3  F1  UNL     1       1.948  -1.287  18.342  0.00  0.00    +0.000 F 
ATOM      4  C8  UNL     1       2.524   0.880  17.628  0.00  0.00    +0.000 C 
ATOM      5  C9  UNL     1       2.259   2.274  18.181  0.00  0.00    +0.000 C 
ATOM      6  C10 UNL     1       1.671   2.064  19.592  0.00  0.00    +0.000 C 
ENDROOT
BRANCH   6   7
ATOM      7  C11 UNL     1       2.410   2.722  20.743  0.00  0.00    +0.000 C 
ATOM      8  C12 UNL     1       3.181   1.893  21.568  0.00  0.00    +0.000 C 
ATOM      9  N1  UNL     1       3.915   2.310  22.622  0.00  0.00    +0.000 NA
ATOM     10  C13 UNL     1       3.896   3.627  22.889  0.00  0.00    +0.000 C 
ATOM     11  C14 UNL     1       3.177   4.543  22.143  0.00  0.00    +0.000 C 
ATOM     12  C15 UNL     1       2.420   4.094  21.052  0.00  0.00    +0.000 C 
BRANCH  12  13
ATOM     13  C16 UNL     1       1.701   5.106  20.272  0.00  0.00    +0.000 C 
ATOM     14  C17 UNL     1       2.274   6.247  19.885  0.00  0.00    +0.000 C 
ATOM     15  F2  UNL     1       1.592   7.158  19.168  0.00  0.00    +0.000 F 
ENDBRANCH  12  13
ENDBRANCH   6   7
BRANCH   1  16
ATOM     16  C5  UNL     1       0.219   0.185  20.461  0.00  0.00    +0.000 C 
ATOM     17  O1  UNL     1      -0.819   0.797  20.199  0.00  0.00    +0.000 OA
BRANCH  16  18
ATOM     18  C3  UNL     1       0.256  -0.946  21.488  0.00  0.00    +0.000 C 
ATOM     19  C4  UNL     1      -0.135  -2.281  20.855  0.00  0.00    +0.000 C 
BRANCH  18  21
ATOM     20  C1  UNL     1       2.298  -2.366  22.159  0.00  0.00    +0.000 C 
ATOM     21  C2  UNL     1       1.610  -1.007  22.209  0.00  0.00    +0.000 C 
ENDBRANCH  18  21
ENDBRANCH  16  18
ENDBRANCH   1  16
TORSDOF 5
ENDMDL
MODEL 3
REMARK VINA RESULT:    -6.050     21.485     24.767
REMARK INTER + INTRA:          -9.376
REMARK INTER:                  -7.788
REMARK INTRA:                  -1.589
REMARK UNBOUND:                -1.559
REMARK  Name = ligantes_geracao2\Derivado_019.pdb
REMARK  7 active torsions:
REMARK  status: ('A' for Active; 'I' for Inactive)
REMARK    1  A    between atoms: C1_1  and  C2_2
REMARK    2  A    between atoms: C2_2  and  C3_3
REMARK    3  A    between atoms: C3_3  and  C4_4
REMARK    4  A    between atoms: C3_3  and  C5_5
REMARK    5  A    between atoms: C5_5  and  C6_7
REMARK    6  A    between atoms: C10_12  and  C11_13
REMARK    7  A    between atoms: C15_18  and  C16_19
REMARK                            x       y       z     vdW  Elec       q    Type
REMARK                         _______ _______ _______ _____ _____    ______ ____
ROOT
ATOM      1  C6  UNL     1      17.942  -5.328   0.236  0.00  0.00    +0.000 C 
ATOM      2  C7  UNL     1      18.111  -4.782  -1.171  0.00  0.00    +0.000 C 
ATOM      3  F1  UNL     1      19.099  -3.854  -1.193  0.00  0.00    +0.000 F 
ATOM      4  C8  UNL     1      16.777  -4.123  -1.465  0.00  0.00    +0.000 C 
ATOM      5  C9  UNL     1      15.753  -5.079  -0.866  0.00  0.00    +0.000 C 
ATOM      6  C10 UNL     1      16.480  -5.815   0.278  0.00  0.00    +0.000 C 
ENDROOT
BRANCH   6   7
ATOM      7  C11 UNL     1      15.862  -5.707   1.660  0.00  0.00    +0.000 C 
ATOM      8  C12 UNL     1      15.429  -4.440   2.072  0.00  0.00    +0.000 C 
ATOM      9  N1  UNL     1      14.842  -4.166   3.257  0.00  0.00    +0.000 NA
ATOM     10  C13 UNL     1      14.664  -5.199   4.097  0.00  0.00    +0.000 C 
ATOM     11  C14 UNL     1      15.046  -6.495   3.800  0.00  0.00    +0.000 C 
ATOM     12  C15 UNL     1      15.654  -6.763   2.565  0.00  0.00    +0.000 C 
BRANCH  12  13
ATOM     13  C16 UNL     1      16.011  -8.156   2.282  0.00  0.00    +0.000 C 
ATOM     14  C17 UNL     1      15.716  -9.152   3.119  0.00  0.00    +0.000 C 
ATOM     15  F2  UNL     1      16.053 -10.423   2.833  0.00  0.00    +0.000 F 
ENDBRANCH  12  13
ENDBRANCH   6   7
BRANCH   1  16
ATOM     16  C5  UNL     1      18.915  -6.471   0.470  0.00  0.00    +0.000 C 
ATOM     17  O1  UNL     1      18.899  -7.469  -0.252  0.00  0.00    +0.000 OA
BRANCH  16  18
ATOM     18  C3  UNL     1      19.895  -6.327   1.634  0.00  0.00    +0.000 C 
ATOM     19  C4  UNL     1      19.929  -4.891   2.155  0.00  0.00    +0.000 C 
BRANCH  18  21
ATOM     20  C1  UNL     1      20.716  -7.497   3.779  0.00  0.00    +0.000 C 
ATOM     21  C2  UNL     1      19.609  -7.352   2.741  0.00  0.00    +0.000 C 
ENDBRANCH  18  21
ENDBRANCH  16  18
ENDBRANCH   1  16
TORSDOF 5
ENDMDL
MODEL 4
REMARK VINA RESULT:    -6.035      2.413      4.270
REMARK INTER + INTRA:          -9.357
REMARK INTER:                  -7.621
REMARK INTRA:                  -1.736
REMARK UNBOUND:                -1.559
REMARK  Name = ligantes_geracao2\Derivado_019.pdb
REMARK  7 active torsions:
REMARK  status: ('A' for Active; 'I' for Inactive)
REMARK    1  A    between atoms: C1_1  and  C2_2
REMARK    2  A    between atoms: C2_2  and  C3_3
REMARK    3  A    between atoms: C3_3  and  C4_4
REMARK    4  A    between atoms: C3_3  and  C5_5
REMARK    5  A    between atoms: C5_5  and  C6_7
REMARK    6  A    between atoms: C10_12  and  C11_13
REMARK    7  A    between atoms: C15_18  and  C16_19
REMARK                            x       y       z     vdW  Elec       q    Type
REMARK                         _______ _______ _______ _____ _____    ______ ____
ROOT
ATOM      1  C6  UNL     1       2.344   1.009  20.183  0.00  0.00    +0.000 C 
ATOM      2  C7  UNL     1       3.273   1.739  21.137  0.00  0.00    +0.000 C 
ATOM      3  F1  UNL     1       4.471   1.956  20.543  0.00  0.00    +0.000 F 
ATOM      4  C8  UNL     1       3.437   0.771  22.293  0.00  0.00    +0.000 C 
ATOM      5  C9  UNL     1       2.044   0.185  22.485  0.00  0.00    +0.000 C 
ATOM      6  C10 UNL     1       1.353   0.276  21.109  0.00  0.00    +0.000 C 
ENDROOT
BRANCH   6   7
ATOM      7  C11 UNL     1       0.842  -1.024  20.515  0.00  0.00    +0.000 C 
ATOM      8  C12 UNL     1       1.781  -2.041  20.294  0.00  0.00    +0.000 C 
ATOM      9  N1  UNL     1       1.500  -3.262  19.792  0.00  0.00    +0.000 NA
ATOM     10  C13 UNL     1       0.215  -3.510  19.486  0.00  0.00    +0.000 C 
ATOM     11  C14 UNL     1      -0.800  -2.589  19.665  0.00  0.00    +0.000 C 
ATOM     12  C15 UNL     1      -0.492  -1.324  20.188  0.00  0.00    +0.000 C 
BRANCH  12  13
ATOM     13  C16 UNL     1      -1.606  -0.393  20.390  0.00  0.00    +0.000 C 
ATOM     14  C17 UNL     1      -2.845  -0.810  20.654  0.00  0.00    +0.000 C 
ATOM     15  F2  UNL     1      -3.849   0.066  20.839  0.00  0.00    +0.000 F 
ENDBRANCH  12  13
ENDBRANCH   6   7
BRANCH   1  16
ATOM     16  C5  UNL     1       1.631   2.006  19.287  0.00  0.00    +0.000 C 
ATOM     17  O1  UNL     1       1.320   3.122  19.708  0.00  0.00    +0.000 OA
BRANCH  16  18
ATOM     18  C3  UNL     1       1.317   1.563  17.858  0.00  0.00    +0.000 C 
ATOM     19  C4  UNL     1       1.263   2.758  16.907  0.00  0.00    +0.000 C 
BRANCH  18  21
ATOM     20  C1  UNL     1       1.613  -0.775  16.816  0.00  0.00    +0.000 C 
ATOM     21  C2  UNL     1       2.285   0.470  17.382  0.00  0.00    +0.000 C 
ENDBRANCH  18  21
ENDBRANCH  16  18
ENDBRANCH   1  16
TORSDOF 5
ENDMDL
MODEL 5
REMARK VINA RESULT:    -6.015      1.474      2.091
REMARK INTER + INTRA:          -9.332
REMARK INTER:                  -7.851
REMARK INTRA:                  -1.481
REMARK UNBOUND:                -1.559
REMARK  Name = ligantes_geracao2\Derivado_019.pdb
REMARK  7 active torsions:
REMARK  status: ('A' for Active; 'I' for Inactive)
REMARK    1  A    between atoms: C1_1  and  C2_2
REMARK    2  A    between atoms: C2_2  and  C3_3
REMARK    3  A    between atoms: C3_3  and  C4_4
REMARK    4  A    between atoms: C3_3  and  C5_5
REMARK    5  A    between atoms: C5_5  and  C6_7
REMARK    6  A    between atoms: C10_12  and  C11_13
REMARK    7  A    between atoms: C15_18  and  C16_19
REMARK                            x       y       z     vdW  Elec       q    Type
REMARK                         _______ _______ _______ _____ _____    ______ ____
ROOT
ATOM      1  C6  UNL     1       0.207  -1.499  20.263  0.00  0.00    +0.000 C 
ATOM      2  C7  UNL     1      -1.217  -1.778  20.708  0.00  0.00    +0.000 C 
ATOM      3  F1  UNL     1      -1.213  -2.582  21.799  0.00  0.00    +0.000 F 
ATOM      4  C8  UNL     1      -1.828  -2.510  19.529  0.00  0.00    +0.000 C 
ATOM      5  C9  UNL     1      -1.271  -1.781  18.312  0.00  0.00    +0.000 C 
ATOM      6  C10 UNL     1       0.077  -1.179  18.760  0.00  0.00    +0.000 C 
ENDROOT
BRANCH   6   7
ATOM      7  C11 UNL     1       1.303  -1.583  17.962  0.00  0.00    +0.000 C 
ATOM      8  C12 UNL     1       1.564  -2.954  17.837  0.00  0.00    +0.000 C 
ATOM      9  N1  UNL     1       2.596  -3.489  17.150  0.00  0.00    +0.000 NA
ATOM     10  C13 UNL     1       3.429  -2.629  16.543  0.00  0.00    +0.000 C 
ATOM     11  C14 UNL     1       3.272  -1.256  16.590  0.00  0.00    +0.000 C 
ATOM     12  C15 UNL     1       2.195  -0.715  17.307  0.00  0.00    +0.000 C 
BRANCH  12  13
ATOM     13  C16 UNL     1       2.050   0.743  17.301  0.00  0.00    +0.000 C 
ATOM     14  C17 UNL     1       2.664   1.524  18.192  0.00  0.00    +0.000 C 
ATOM     15  F2  UNL     1       2.516   2.861  18.163  0.00  0.00    +0.000 F 
ENDBRANCH  12  13
ENDBRANCH   6   7
BRANCH   1  16
ATOM     16  C5  UNL     1       0.772  -0.319  21.034  0.00  0.00    +0.000 C 
ATOM     17  O1  UNL     1       0.390   0.828  20.798  0.00  0.00    +0.000 OA
BRANCH  16  18
ATOM     18  C3  UNL     1       1.828  -0.619  22.098  0.00  0.00    +0.000 C 
ATOM     19  C4  UNL     1       2.230  -2.094  22.077  0.00  0.00    +0.000 C 
BRANCH  18  21
ATOM     20  C1  UNL     1       3.051   1.468  22.983  0.00  0.00    +0.000 C 
ATOM     21  C2  UNL     1       3.034   0.325  21.977  0.00  0.00    +0.000 C 
ENDBRANCH  18  21
ENDBRANCH  16  18
ENDBRANCH   1  16
TORSDOF 5
ENDMDL
MODEL 6
REMARK VINA RESULT:    -6.010      2.662      4.274
REMARK INTER + INTRA:          -9.325
REMARK INTER:                  -7.692
REMARK INTRA:                  -1.633
REMARK UNBOUND:                -1.559
REMARK  Name = ligantes_geracao2\Derivado_019.pdb
REMARK  7 active torsions:
REMARK  status: ('A' for Active; 'I' for Inactive)
REMARK    1  A    between atoms: C1_1  and  C2_2
REMARK    2  A    between atoms: C2_2  and  C3_3
REMARK    3  A    between atoms: C3_3  and  C4_4
REMARK    4  A    between atoms: C3_3  and  C5_5
REMARK    5  A    between atoms: C5_5  and  C6_7
REMARK    6  A    between atoms: C10_12  and  C11_13
REMARK    7  A    between atoms: C15_18  and  C16_19
REMARK                            x       y       z     vdW  Elec       q    Type
REMARK                         _______ _______ _______ _____ _____    ______ ____
ROOT
ATOM      1  C6  UNL     1       2.165   2.481  20.573  0.00  0.00    +0.000 C 
ATOM      2  C7  UNL     1       2.302   3.993  20.549  0.00  0.00    +0.000 C 
ATOM      3  F1  UNL     1       1.912   4.513  21.738  0.00  0.00    +0.000 F 
ATOM      4  C8  UNL     1       1.344   4.425  19.456  0.00  0.00    +0.000 C 
ATOM      5  C9  UNL     1       1.525   3.374  18.368  0.00  0.00    +0.000 C 
ATOM      6  C10 UNL     1       1.993   2.094  19.091  0.00  0.00    +0.000 C 
ENDROOT
BRANCH   6   7
ATOM      7  C11 UNL     1       1.141   0.853  18.900  0.00  0.00    +0.000 C 
ATOM      8  C12 UNL     1      -0.034   0.759  19.656  0.00  0.00    +0.000 C 
ATOM      9  N1  UNL     1      -0.916  -0.262  19.599  0.00  0.00    +0.000 NA
ATOM     10  C13 UNL     1      -0.632  -1.260  18.745  0.00  0.00    +0.000 C 
ATOM     11  C14 UNL     1       0.494  -1.277  17.943  0.00  0.00    +0.000 C 
ATOM     12  C15 UNL     1       1.400  -0.209  18.014  0.00  0.00    +0.000 C 
BRANCH  12  13
ATOM     13  C16 UNL     1       2.562  -0.255  17.122  0.00  0.00    +0.000 C 
ATOM     14  C17 UNL     1       2.967  -1.383  16.536  0.00  0.00    +0.000 C 
ATOM     15  F2  UNL     1       4.035  -1.398  15.719  0.00  0.00    +0.000 F 
ENDBRANCH  12  13
ENDBRANCH   6   7
BRANCH   1  16
ATOM     16  C5  UNL     1       3.414   1.854  21.169  0.00  0.00    +0.000 C 
ATOM     17  O1  UNL     1       4.497   1.936  20.589  0.00  0.00    +0.000 OA
BRANCH  16  18
ATOM     18  C3  UNL     1       3.261   1.122  22.502  0.00  0.00    +0.000 C 
ATOM     19  C4  UNL     1       3.241   2.103  23.673  0.00  0.00    +0.000 C 
BRANCH  18  21
ATOM     20  C1  UNL     1       2.297  -1.182  21.869  0.00  0.00    +0.000 C 
ATOM     21  C2  UNL     1       2.045   0.185  22.494  0.00  0.00    +0.000 C 
ENDBRANCH  18  21
ENDBRANCH  16  18
ENDBRANCH   1  16
TORSDOF 5
ENDMDL
MODEL 7
REMARK VINA RESULT:    -5.990      3.319      5.418
REMARK INTER + INTRA:          -9.299
REMARK INTER:                  -7.622
REMARK INTRA:                  -1.677
REMARK UNBOUND:                -1.559
REMARK  Name = ligantes_geracao2\Derivado_019.pdb
REMARK  7 active torsions:
REMARK  status: ('A' for Active; 'I' for Inactive)
REMARK    1  A    between atoms: C1_1  and  C2_2
REMARK    2  A    between atoms: C2_2  and  C3_3
REMARK    3  A    between atoms: C3_3  and  C4_4
REMARK    4  A    between atoms: C3_3  and  C5_5
REMARK    5  A    between atoms: C5_5  and  C6_7
REMARK    6  A    between atoms: C10_12  and  C11_13
REMARK    7  A    between atoms: C15_18  and  C16_19
REMARK                            x       y       z     vdW  Elec       q    Type
REMARK                         _______ _______ _______ _____ _____    ______ ____
ROOT
ATOM      1  C6  UNL     1       2.500   3.418  21.282  0.00  0.00    +0.000 C 
ATOM      2  C7  UNL     1       3.320   4.684  21.449  0.00  0.00    +0.000 C 
ATOM      3  F1  UNL     1       3.440   4.989  22.765  0.00  0.00    +0.000 F 
ATOM      4  C8  UNL     1       2.494   5.745  20.747  0.00  0.00    +0.000 C 
ATOM      5  C9  UNL     1       1.963   5.039  19.506  0.00  0.00    +0.000 C 
ATOM      6  C10 UNL     1       1.902   3.540  19.866  0.00  0.00    +0.000 C 
ENDROOT
BRANCH   6   7
ATOM      7  C11 UNL     1       0.551   2.862  19.736  0.00  0.00    +0.000 C 
ATOM      8  C12 UNL     1      -0.574   3.588  20.149  0.00  0.00    +0.000 C 
ATOM      9  N1  UNL     1      -1.850   3.149  20.087  0.00  0.00    +0.000 NA
ATOM     10  C13 UNL     1      -2.041   1.917  19.586  0.00  0.00    +0.000 C 
ATOM     11  C14 UNL     1      -1.011   1.109  19.141  0.00  0.00    +0.000 C 
ATOM     12  C15 UNL     1       0.308   1.579  19.212  0.00  0.00    +0.000 C 
BRANCH  12  13
ATOM     13  C16 UNL     1       1.362   0.700  18.699  0.00  0.00    +0.000 C 
ATOM     14  C17 UNL     1       1.219  -0.625  18.639  0.00  0.00    +0.000 C 
ATOM     15  F2  UNL     1       2.202  -1.409  18.160  0.00  0.00    +0.000 F 
ENDBRANCH  12  13
ENDBRANCH   6   7
BRANCH   1  16
ATOM     16  C5  UNL     1       3.396   2.197  21.403  0.00  0.00    +0.000 C 
ATOM     17  O1  UNL     1       4.278   1.980  20.571  0.00  0.00    +0.000 OA
BRANCH  16  18
ATOM     18  C3  UNL     1       3.149   1.262  22.587  0.00  0.00    +0.000 C 
ATOM     19  C4  UNL     1       2.992   2.047  23.888  0.00  0.00    +0.000 C 
BRANCH  18  21
ATOM     20  C1  UNL     1       2.349  -1.152  22.174  0.00  0.00    +0.000 C 
ATOM     21  C2  UNL     1       1.969   0.316  22.320  0.00  0.00    +0.000 C 
ENDBRANCH  18  21
ENDBRANCH  16  18
ENDBRANCH   1  16
TORSDOF 5
ENDMDL
MODEL 8
REMARK VINA RESULT:    -5.914     22.677     25.180
REMARK INTER + INTRA:          -9.201
REMARK INTER:                  -7.436
REMARK INTRA:                  -1.766
REMARK UNBOUND:                -1.559
REMARK  Name = ligantes_geracao2\Derivado_019.pdb
REMARK  7 active torsions:
REMARK  status: ('A' for Active; 'I' for Inactive)
REMARK    1  A    between atoms: C1_1  and  C2_2
REMARK    2  A    between atoms: C2_2  and  C3_3
REMARK    3  A    between atoms: C3_3  and  C4_4
REMARK    4  A    between atoms: C3_3  and  C5_5
REMARK    5  A    between atoms: C5_5  and  C6_7
REMARK    6  A    between atoms: C10_12  and  C11_13
REMARK    7  A    between atoms: C15_18  and  C16_19
REMARK                            x       y       z     vdW  Elec       q    Type
REMARK                         _______ _______ _______ _____ _____    ______ ____
ROOT
ATOM      1  C6  UNL     1      18.393  -7.885   2.539  0.00  0.00    +0.000 C 
ATOM      2  C7  UNL     1      19.709  -8.310   3.164  0.00  0.00    +0.000 C 
ATOM      3  F1  UNL     1      19.539  -8.545   4.489  0.00  0.00    +0.000 F 
ATOM      4  C8  UNL     1      20.610  -7.107   2.965  0.00  0.00    +0.000 C 
ATOM      5  C9  UNL     1      20.266  -6.616   1.564  0.00  0.00    +0.000 C 
ATOM      6  C10 UNL     1      18.811  -7.058   1.306  0.00  0.00    +0.000 C 
ENDROOT
BRANCH   6   7
ATOM      7  C11 UNL     1      17.816  -5.965   0.964  0.00  0.00    +0.000 C 
ATOM      8  C12 UNL     1      17.683  -4.910   1.876  0.00  0.00    +0.000 C 
ATOM      9  N1  UNL     1      16.863  -3.848   1.723  0.00  0.00    +0.000 NA
ATOM     10  C13 UNL     1      16.122  -3.813   0.603  0.00  0.00    +0.000 C 
ATOM     11  C14 UNL     1      16.171  -4.792  -0.372  0.00  0.00    +0.000 C 
ATOM     12  C15 UNL     1      17.028  -5.888  -0.198  0.00  0.00    +0.000 C 
BRANCH  12  13
ATOM     13  C16 UNL     1      17.069  -6.884  -1.273  0.00  0.00    +0.000 C 
ATOM     14  C17 UNL     1      17.912  -6.787  -2.303  0.00  0.00    +0.000 C 
ATOM     15  F2  UNL     1      17.932  -7.717  -3.275  0.00  0.00    +0.000 F 
ENDBRANCH  12  13
ENDBRANCH   6   7
BRANCH   1  16
ATOM     16  C5  UNL     1      17.587  -9.108   2.139  0.00  0.00    +0.000 C 
ATOM     17  O1  UNL     1      18.140 -10.093   1.646  0.00  0.00    +0.000 OA
BRANCH  16  18
ATOM     18  C3  UNL     1      16.077  -9.058   2.370  0.00  0.00    +0.000 C 
ATOM     19  C4  UNL     1      15.530 -10.432   2.755  0.00  0.00    +0.000 C 
BRANCH  18  21
ATOM     20  C1  UNL     1      14.714  -6.926   2.857  0.00  0.00    +0.000 C 
ATOM     21  C2  UNL     1      15.698  -7.965   3.380  0.00  0.00    +0.000 C 
ENDBRANCH  18  21
ENDBRANCH  16  18
ENDBRANCH   1  16
TORSDOF 5
ENDMDL
MODEL 9
REMARK VINA RESULT:    -5.889      2.458      4.622
REMARK INTER + INTRA:          -9.169
REMARK INTER:                  -7.227
REMARK INTRA:                  -1.942
REMARK UNBOUND:                -1.559
REMARK  Name = ligantes_geracao2\Derivado_019.pdb
REMARK  7 active torsions:
REMARK  status: ('A' for Active; 'I' for Inactive)
REMARK    1  A    between atoms: C1_1  and  C2_2
REMARK    2  A    between atoms: C2_2  and  C3_3
REMARK    3  A    between atoms: C3_3  and  C4_4
REMARK    4  A    between atoms: C3_3  and  C5_5
REMARK    5  A    between atoms: C5_5  and  C6_7
REMARK    6  A    between atoms: C10_12  and  C11_13
REMARK    7  A    between atoms: C15_18  and  C16_19
REMARK                            x       y       z     vdW  Elec       q    Type
REMARK                         _______ _______ _______ _____ _____    ______ ____
ROOT
ATOM      1  C6  UNL     1       0.026  -0.421  20.661  0.00  0.00    +0.000 C 
ATOM      2  C7  UNL     1      -0.427  -1.870  20.699  0.00  0.00    +0.000 C 
ATOM      3  F1  UNL     1      -1.608  -1.969  21.358  0.00  0.00    +0.000 F 
ATOM      4  C8  UNL     1       0.664  -2.569  21.486  0.00  0.00    +0.000 C 
ATOM      5  C9  UNL     1       1.951  -1.923  20.988  0.00  0.00    +0.000 C 
ATOM      6  C10 UNL     1       1.558  -0.510  20.513  0.00  0.00    +0.000 C 
ENDROOT
BRANCH   6   7
ATOM      7  C11 UNL     1       2.281   0.655  21.164  0.00  0.00    +0.000 C 
ATOM      8  C12 UNL     1       2.471   0.597  22.551  0.00  0.00    +0.000 C 
ATOM      9  N1  UNL     1       3.108   1.533  23.288  0.00  0.00    +0.000 NA
ATOM     10  C13 UNL     1       3.593   2.596  22.627  0.00  0.00    +0.000 C 
ATOM     11  C14 UNL     1       3.473   2.762  21.260  0.00  0.00    +0.000 C 
ATOM     12  C15 UNL     1       2.809   1.781  20.508  0.00  0.00    +0.000 C 
BRANCH  12  13
ATOM     13  C16 UNL     1       2.734   1.984  19.058  0.00  0.00    +0.000 C 
ATOM     14  C17 UNL     1       2.063   3.001  18.514  0.00  0.00    +0.000 C 
ATOM     15  F2  UNL     1       2.013   3.166  17.180  0.00  0.00    +0.000 F 
ENDBRANCH  12  13
ENDBRANCH   6   7
BRANCH   1  16
ATOM     16  C5  UNL     1      -0.606   0.290  19.477  0.00  0.00    +0.000 C 
ATOM     17  O1  UNL     1      -1.001   1.453  19.579  0.00  0.00    +0.000 OA
BRANCH  16  18
ATOM     18  C3  UNL     1      -0.731  -0.498  18.172  0.00  0.00    +0.000 C 
ATOM     19  C4  UNL     1      -2.188  -0.593  17.722  0.00  0.00    +0.000 C 
BRANCH  18  21
ATOM     20  C1  UNL     1       1.459  -0.739  16.836  0.00  0.00    +0.000 C 
ATOM     21  C2  UNL     1       0.191   0.069  17.082  0.00  0.00    +0.000 C 
ENDBRANCH  18  21
ENDBRANCH  16  18
ENDBRANCH   1  16
TORSDOF 5
ENDMDL
