MODEL 1
REMARK VINA RESULT:    -5.146      0.000      0.000
REMARK INTER + INTRA:          -6.519
REMARK INTER:                  -6.350
REMARK INTRA:                  -0.169
REMARK UNBOUND:                -0.169
REMARK  Name = PHE
REMARK  5 active torsions:
REMARK  status: ('A' for Active; 'I' for Inactive)
REMARK    1  A    between atoms: N_1  and  CA_2
REMARK    2  A    between atoms: CA_2  and  C_3
REMARK    3  A    between atoms: CA_2  and  CB_5
REMARK    4  A    between atoms: C_3  and  OXT_12
REMARK    5  A    between atoms: CB_5  and  CG_6
REMARK                            x       y       z     vdW  Elec       q    Type
REMARK                         _______ _______ _______ _____ _____    ______ ____
ROOT
ATOM      1  CA  PHE A   1      35.572  -0.624   5.663  0.00  0.00    +0.165 C 
ENDROOT
BRANCH   1   2
ATOM      2  N   PHE A   1      35.465  -2.059   5.940  0.00  0.00    -0.318 NA
ATOM      3  H1  PHE A   1      35.612  -2.599   5.056  0.00  0.00    +0.119 HD
ATOM      4  H2  PHE A   1      34.495  -2.265   6.277  0.00  0.00    +0.119 HD
ENDBRANCH   1   2
BRANCH   1   5
ATOM      5  C   PHE A   1      35.111  -0.314   4.264  0.00  0.00    +0.322 C 
ATOM      6  O   PHE A   1      35.028  -1.230   3.401  0.00  0.00    -0.249 OA
BRANCH   5   7
ATOM      7  OXT PHE A   1      34.776   0.992   3.920  0.00  0.00    -0.480 OA
ATOM      8  HXT PHE A   1      35.481   1.640   3.591  0.00  0.00    +0.295 HD
ENDBRANCH   5   7
ENDBRANCH   1   5
BRANCH   1   9
ATOM      9  CB  PHE A   1      37.016  -0.136   5.874  0.00  0.00    +0.065 C 
BRANCH   9  10
ATOM     10  CG  PHE A   1      37.106   0.833   7.025  0.00  0.00    -0.045 A 
ATOM     11  CD1 PHE A   1      36.290   0.664   8.158  0.00  0.00    +0.004 A 
ATOM     12  CD2 PHE A   1      38.035   1.886   6.999  0.00  0.00    +0.004 A 
ATOM     13  CE1 PHE A   1      36.392   1.547   9.237  0.00  0.00    +0.000 A 
ATOM     14  CE2 PHE A   1      38.134   2.767   8.081  0.00  0.00    +0.000 A 
ATOM     15  CZ  PHE A   1      37.312   2.598   9.198  0.00  0.00    +0.000 A 
ENDBRANCH   9  10
ENDBRANCH   1   9
TORSDOF 5
ENDMDL
MODEL 2
REMARK VINA RESULT:    -5.134      0.107      1.686
REMARK INTER + INTRA:          -6.504
REMARK INTER:                  -6.339
REMARK INTRA:                  -0.165
REMARK UNBOUND:                -0.169
REMARK  Name = PHE
REMARK  5 active torsions:
REMARK  status: ('A' for Active; 'I' for Inactive)
REMARK    1  A    between atoms: N_1  and  CA_2
REMARK    2  A    between atoms: CA_2  and  C_3
REMARK    3  A    between atoms: CA_2  and  CB_5
REMARK    4  A    between atoms: C_3  and  OXT_12
REMARK    5  A    between atoms: CB_5  and  CG_6
REMARK                            x       y       z     vdW  Elec       q    Type
REMARK                         _______ _______ _______ _____ _____    ______ ____
ROOT
ATOM      1  CA  PHE A   1      35.570  -0.525   5.618  0.00  0.00    +0.165 C 
ENDROOT
BRANCH   1   2
ATOM      2  N   PHE A   1      35.459  -1.966   5.860  0.00  0.00    -0.318 NA
ATOM      3  H1  PHE A   1      35.786  -2.186   6.829  0.00  0.00    +0.119 HD
ATOM      4  H2  PHE A   1      36.091  -2.468   5.193  0.00  0.00    +0.119 HD
ENDBRANCH   1   2
BRANCH   1   5
ATOM      5  C   PHE A   1      35.124  -0.180   4.222  0.00  0.00    +0.322 C 
ATOM      6  O   PHE A   1      34.788   1.000   3.932  0.00  0.00    -0.249 OA
BRANCH   5   7
ATOM      7  OXT PHE A   1      35.081  -1.172   3.247  0.00  0.00    -0.480 OA
ATOM      8  HXT PHE A   1      34.940  -0.936   2.272  0.00  0.00    +0.295 HD
ENDBRANCH   5   7
ENDBRANCH   1   5
BRANCH   1   9
ATOM      9  CB  PHE A   1      37.013  -0.044   5.857  0.00  0.00    +0.065 C 
BRANCH   9  10
ATOM     10  CG  PHE A   1      37.098   0.860   7.061  0.00  0.00    -0.045 A 
ATOM     11  CD1 PHE A   1      38.008   1.931   7.078  0.00  0.00    +0.004 A 
ATOM     12  CD2 PHE A   1      36.239   0.669   8.156  0.00  0.00    +0.004 A 
ATOM     13  CE1 PHE A   1      38.068   2.786   8.183  0.00  0.00    +0.000 A 
ATOM     14  CE2 PHE A   1      36.303   1.527   9.259  0.00  0.00    +0.000 A 
ATOM     15  CZ  PHE A   1      37.217   2.583   9.273  0.00  0.00    +0.000 A 
ENDBRANCH   9  10
ENDBRANCH   1   9
TORSDOF 5
ENDMDL
MODEL 3
REMARK VINA RESULT:    -5.008      3.711      4.837
REMARK INTER + INTRA:          -6.348
REMARK INTER:                  -6.140
REMARK INTRA:                  -0.208
REMARK UNBOUND:                -0.169
REMARK  Name = PHE
REMARK  5 active torsions:
REMARK  status: ('A' for Active; 'I' for Inactive)
REMARK    1  A    between atoms: N_1  and  CA_2
REMARK    2  A    between atoms: CA_2  and  C_3
REMARK    3  A    between atoms: CA_2  and  CB_5
REMARK    4  A    between atoms: C_3  and  OXT_12
REMARK    5  A    between atoms: CB_5  and  CG_6
REMARK                            x       y       z     vdW  Elec       q    Type
REMARK                         _______ _______ _______ _____ _____    ______ ____
ROOT
ATOM      1  CA  PHE A   1      37.169   2.033   8.851  0.00  0.00    +0.165 C 
ENDROOT
BRANCH   1   2
ATOM      2  N   PHE A   1      37.382   3.158   9.766  0.00  0.00    -0.318 NA
ATOM      3  H1  PHE A   1      37.297   4.059   9.240  0.00  0.00    +0.119 HD
ATOM      4  H2  PHE A   1      38.358   3.105  10.142  0.00  0.00    +0.119 HD
ENDBRANCH   1   2
BRANCH   1   5
ATOM      5  C   PHE A   1      37.011   0.745   9.614  0.00  0.00    +0.322 C 
ATOM      6  O   PHE A   1      36.922   0.756  10.872  0.00  0.00    -0.249 OA
BRANCH   5   7
ATOM      7  OXT PHE A   1      36.965  -0.464   8.927  0.00  0.00    -0.480 OA
ATOM      8  HXT PHE A   1      36.268  -0.630   8.212  0.00  0.00    +0.295 HD
ENDBRANCH   5   7
ENDBRANCH   1   5
BRANCH   1   9
ATOM      9  CB  PHE A   1      38.329   1.924   7.845  0.00  0.00    +0.065 C 
BRANCH   9  10
ATOM     10  CG  PHE A   1      37.856   2.162   6.433  0.00  0.00    -0.045 A 
ATOM     11  CD1 PHE A   1      36.765   1.438   5.921  0.00  0.00    +0.004 A 
ATOM     12  CD2 PHE A   1      38.468   3.141   5.633  0.00  0.00    +0.004 A 
ATOM     13  CE1 PHE A   1      36.308   1.678   4.621  0.00  0.00    +0.000 A 
ATOM     14  CE2 PHE A   1      38.008   3.377   4.333  0.00  0.00    +0.000 A 
ATOM     15  CZ  PHE A   1      36.930   2.646   3.828  0.00  0.00    +0.000 A 
ENDBRANCH   9  10
ENDBRANCH   1   9
TORSDOF 5
ENDMDL
MODEL 4
REMARK VINA RESULT:    -4.993      3.708      5.038
REMARK INTER + INTRA:          -6.330
REMARK INTER:                  -6.129
REMARK INTRA:                  -0.200
REMARK UNBOUND:                -0.169
REMARK  Name = PHE
REMARK  5 active torsions:
REMARK  status: ('A' for Active; 'I' for Inactive)
REMARK    1  A    between atoms: N_1  and  CA_2
REMARK    2  A    between atoms: CA_2  and  C_3
REMARK    3  A    between atoms: CA_2  and  CB_5
REMARK    4  A    between atoms: C_3  and  OXT_12
REMARK    5  A    between atoms: CB_5  and  CG_6
REMARK                            x       y       z     vdW  Elec       q    Type
REMARK                         _______ _______ _______ _____ _____    ______ ____
ROOT
ATOM      1  CA  PHE A   1      37.153   2.073   8.895  0.00  0.00    +0.165 C 
ENDROOT
BRANCH   1   2
ATOM      2  N   PHE A   1      37.428   3.192   9.800  0.00  0.00    -0.318 NA
ATOM      3  H1  PHE A   1      36.642   3.293  10.483  0.00  0.00    +0.119 HD
ATOM      4  H2  PHE A   1      37.473   4.075   9.240  0.00  0.00    +0.119 HD
ENDBRANCH   1   2
BRANCH   1   5
ATOM      5  C   PHE A   1      36.967   0.795   9.667  0.00  0.00    +0.322 C 
ATOM      6  O   PHE A   1      36.832   0.819  10.921  0.00  0.00    -0.249 OA
BRANCH   5   7
ATOM      7  OXT PHE A   1      36.948  -0.423   8.993  0.00  0.00    -0.480 OA
ATOM      8  HXT PHE A   1      36.433  -0.530   8.127  0.00  0.00    +0.295 HD
ENDBRANCH   5   7
ENDBRANCH   1   5
BRANCH   1   9
ATOM      9  CB  PHE A   1      38.285   1.919   7.863  0.00  0.00    +0.065 C 
BRANCH   9  10
ATOM     10  CG  PHE A   1      37.779   2.133   6.458  0.00  0.00    -0.045 A 
ATOM     11  CD1 PHE A   1      38.430   3.036   5.601  0.00  0.00    +0.004 A 
ATOM     12  CD2 PHE A   1      36.682   1.397   5.977  0.00  0.00    +0.004 A 
ATOM     13  CE1 PHE A   1      37.979   3.214   4.290  0.00  0.00    +0.000 A 
ATOM     14  CE2 PHE A   1      36.234   1.579   4.665  0.00  0.00    +0.000 A 
ATOM     15  CZ  PHE A   1      36.880   2.487   3.823  0.00  0.00    +0.000 A 
ENDBRANCH   9  10
ENDBRANCH   1   9
TORSDOF 5
ENDMDL
MODEL 5
REMARK VINA RESULT:    -4.979      1.188      2.073
REMARK INTER + INTRA:          -6.313
REMARK INTER:                  -6.105
REMARK INTRA:                  -0.208
REMARK UNBOUND:                -0.169
REMARK  Name = PHE
REMARK  5 active torsions:
REMARK  status: ('A' for Active; 'I' for Inactive)
REMARK    1  A    between atoms: N_1  and  CA_2
REMARK    2  A    between atoms: CA_2  and  C_3
REMARK    3  A    between atoms: CA_2  and  CB_5
REMARK    4  A    between atoms: C_3  and  OXT_12
REMARK    5  A    between atoms: CB_5  and  CG_6
REMARK                            x       y       z     vdW  Elec       q    Type
REMARK                         _______ _______ _______ _____ _____    ______ ____
ROOT
ATOM      1  CA  PHE A   1      36.469   0.264   5.233  0.00  0.00    +0.165 C 
ENDROOT
BRANCH   1   2
ATOM      2  N   PHE A   1      37.039  -0.866   4.495  0.00  0.00    -0.318 NA
ATOM      3  H1  PHE A   1      36.904  -1.747   5.043  0.00  0.00    +0.119 HD
ATOM      4  H2  PHE A   1      38.069  -0.716   4.392  0.00  0.00    +0.119 HD
ENDBRANCH   1   2
BRANCH   1   5
ATOM      5  C   PHE A   1      35.602   1.106   4.335  0.00  0.00    +0.322 C 
ATOM      6  O   PHE A   1      35.896   2.312   4.110  0.00  0.00    -0.249 OA
BRANCH   5   7
ATOM      7  OXT PHE A   1      34.467   0.551   3.751  0.00  0.00    -0.480 OA
ATOM      8  HXT PHE A   1      34.295   0.644   2.758  0.00  0.00    +0.295 HD
ENDBRANCH   5   7
ENDBRANCH   1   5
BRANCH   1   9
ATOM      9  CB  PHE A   1      37.584   1.120   5.861  0.00  0.00    +0.065 C 
BRANCH   9  10
ATOM     10  CG  PHE A   1      37.288   1.432   7.306  0.00  0.00    -0.045 A 
ATOM     11  CD1 PHE A   1      37.887   2.541   7.927  0.00  0.00    +0.004 A 
ATOM     12  CD2 PHE A   1      36.376   0.647   8.031  0.00  0.00    +0.004 A 
ATOM     13  CE1 PHE A   1      37.592   2.848   9.259  0.00  0.00    +0.000 A 
ATOM     14  CE2 PHE A   1      36.083   0.957   9.363  0.00  0.00    +0.000 A 
ATOM     15  CZ  PHE A   1      36.692   2.055   9.977  0.00  0.00    +0.000 A 
ENDBRANCH   9  10
ENDBRANCH   1   9
TORSDOF 5
ENDMDL
MODEL 6
REMARK VINA RESULT:    -4.967      3.487      4.769
REMARK INTER + INTRA:          -6.298
REMARK INTER:                  -6.119
REMARK INTRA:                  -0.179
REMARK UNBOUND:                -0.169
REMARK  Name = PHE
REMARK  5 active torsions:
REMARK  status: ('A' for Active; 'I' for Inactive)
REMARK    1  A    between atoms: N_1  and  CA_2
REMARK    2  A    between atoms: CA_2  and  C_3
REMARK    3  A    between atoms: CA_2  and  CB_5
REMARK    4  A    between atoms: C_3  and  OXT_12
REMARK    5  A    between atoms: CB_5  and  CG_6
REMARK                            x       y       z     vdW  Elec       q    Type
REMARK                         _______ _______ _______ _____ _____    ______ ____
ROOT
ATOM      1  CA  PHE A   1      37.244   0.951   8.978  0.00  0.00    +0.165 C 
ENDROOT
BRANCH   1   2
ATOM      2  N   PHE A   1      37.186  -0.511   8.886  0.00  0.00    -0.318 NA
ATOM      3  H1  PHE A   1      37.042  -0.917   9.840  0.00  0.00    +0.119 HD
ATOM      4  H2  PHE A   1      38.105  -0.862   8.530  0.00  0.00    +0.119 HD
ENDBRANCH   1   2
BRANCH   1   5
ATOM      5  C   PHE A   1      36.630   1.430  10.266  0.00  0.00    +0.322 C 
ATOM      6  O   PHE A   1      35.821   2.397  10.267  0.00  0.00    -0.249 OA
BRANCH   5   7
ATOM      7  OXT PHE A   1      36.959   0.802  11.464  0.00  0.00    -0.480 OA
ATOM      8  HXT PHE A   1      36.306   0.176  11.919  0.00  0.00    +0.295 HD
ENDBRANCH   5   7
ENDBRANCH   1   5
BRANCH   1   9
ATOM      9  CB  PHE A   1      36.541   1.599   7.772  0.00  0.00    +0.065 C 
BRANCH   9  10
ATOM     10  CG  PHE A   1      37.511   1.862   6.648  0.00  0.00    -0.045 A 
ATOM     11  CD1 PHE A   1      37.241   1.384   5.354  0.00  0.00    +0.004 A 
ATOM     12  CD2 PHE A   1      38.668   2.627   6.871  0.00  0.00    +0.004 A 
ATOM     13  CE1 PHE A   1      38.126   1.651   4.305  0.00  0.00    +0.000 A 
ATOM     14  CE2 PHE A   1      39.551   2.892   5.819  0.00  0.00    +0.000 A 
ATOM     15  CZ  PHE A   1      39.281   2.403   4.538  0.00  0.00    +0.000 A 
ENDBRANCH   9  10
ENDBRANCH   1   9
TORSDOF 5
ENDMDL
MODEL 7
REMARK VINA RESULT:    -4.932      1.770      2.254
REMARK INTER + INTRA:          -6.255
REMARK INTER:                  -6.067
REMARK INTRA:                  -0.188
REMARK UNBOUND:                -0.169
REMARK  Name = PHE
REMARK  5 active torsions:
REMARK  status: ('A' for Active; 'I' for Inactive)
REMARK    1  A    between atoms: N_1  and  CA_2
REMARK    2  A    between atoms: CA_2  and  C_3
REMARK    3  A    between atoms: CA_2  and  CB_5
REMARK    4  A    between atoms: C_3  and  OXT_12
REMARK    5  A    between atoms: CB_5  and  CG_6
REMARK                            x       y       z     vdW  Elec       q    Type
REMARK                         _______ _______ _______ _____ _____    ______ ____
ROOT
ATOM      1  CA  PHE A   1      35.866  -1.051   5.026  0.00  0.00    +0.165 C 
ENDROOT
BRANCH   1   2
ATOM      2  N   PHE A   1      34.735  -0.512   4.266  0.00  0.00    -0.318 NA
ATOM      3  H1  PHE A   1      35.088   0.138   3.525  0.00  0.00    +0.119 HD
ATOM      4  H2  PHE A   1      34.131   0.048   4.913  0.00  0.00    +0.119 HD
ENDBRANCH   1   2
BRANCH   1   5
ATOM      5  C   PHE A   1      35.896  -2.554   4.946  0.00  0.00    +0.322 C 
ATOM      6  O   PHE A   1      35.926  -3.133   3.826  0.00  0.00    -0.249 OA
BRANCH   5   7
ATOM      7  OXT PHE A   1      35.888  -3.308   6.116  0.00  0.00    -0.480 OA
ATOM      8  HXT PHE A   1      36.010  -2.868   7.019  0.00  0.00    +0.295 HD
ENDBRANCH   5   7
ENDBRANCH   1   5
BRANCH   1   9
ATOM      9  CB  PHE A   1      35.802  -0.591   6.494  0.00  0.00    +0.065 C 
BRANCH   9  10
ATOM     10  CG  PHE A   1      36.800   0.506   6.769  0.00  0.00    -0.045 A 
ATOM     11  CD1 PHE A   1      36.723   1.250   7.959  0.00  0.00    +0.004 A 
ATOM     12  CD2 PHE A   1      37.842   0.763   5.863  0.00  0.00    +0.004 A 
ATOM     13  CE1 PHE A   1      37.664   2.249   8.227  0.00  0.00    +0.000 A 
ATOM     14  CE2 PHE A   1      38.782   1.763   6.135  0.00  0.00    +0.000 A 
ATOM     15  CZ  PHE A   1      38.692   2.506   7.316  0.00  0.00    +0.000 A 
ENDBRANCH   9  10
ENDBRANCH   1   9
TORSDOF 5
ENDMDL
MODEL 8
REMARK VINA RESULT:    -4.913      3.328      4.943
REMARK INTER + INTRA:          -6.232
REMARK INTER:                  -6.020
REMARK INTRA:                  -0.212
REMARK UNBOUND:                -0.169
REMARK  Name = PHE
REMARK  5 active torsions:
REMARK  status: ('A' for Active; 'I' for Inactive)
REMARK    1  A    between atoms: N_1  and  CA_2
REMARK    2  A    between atoms: CA_2  and  C_3
REMARK    3  A    between atoms: CA_2  and  CB_5
REMARK    4  A    between atoms: C_3  and  OXT_12
REMARK    5  A    between atoms: CB_5  and  CG_6
REMARK                            x       y       z     vdW  Elec       q    Type
REMARK                         _______ _______ _______ _____ _____    ______ ____
ROOT
ATOM      1  CA  PHE A   1      37.049   1.964   8.278  0.00  0.00    +0.165 C 
ENDROOT
BRANCH   1   2
ATOM      2  N   PHE A   1      38.068   2.999   8.475  0.00  0.00    -0.318 NA
ATOM      3  H1  PHE A   1      38.172   3.561   7.599  0.00  0.00    +0.119 HD
ATOM      4  H2  PHE A   1      38.988   2.534   8.661  0.00  0.00    +0.119 HD
ENDBRANCH   1   2
BRANCH   1   5
ATOM      5  C   PHE A   1      36.518   1.477   9.600  0.00  0.00    +0.322 C 
ATOM      6  O   PHE A   1      36.722   2.141  10.653  0.00  0.00    -0.249 OA
BRANCH   5   7
ATOM      7  OXT PHE A   1      35.800   0.287   9.660  0.00  0.00    -0.480 OA
ATOM      8  HXT PHE A   1      36.252  -0.602   9.481  0.00  0.00    +0.295 HD
ENDBRANCH   5   7
ENDBRANCH   1   5
BRANCH   1   9
ATOM      9  CB  PHE A   1      37.619   0.790   7.461  0.00  0.00    +0.065 C 
BRANCH   9  10
ATOM     10  CG  PHE A   1      36.731   0.454   6.290  0.00  0.00    -0.045 A 
ATOM     11  CD1 PHE A   1      36.140  -0.817   6.191  0.00  0.00    +0.004 A 
ATOM     12  CD2 PHE A   1      36.447   1.422   5.311  0.00  0.00    +0.004 A 
ATOM     13  CE1 PHE A   1      35.295  -1.120   5.120  0.00  0.00    +0.000 A 
ATOM     14  CE2 PHE A   1      35.601   1.115   4.241  0.00  0.00    +0.000 A 
ATOM     15  CZ  PHE A   1      35.027  -0.155   4.145  0.00  0.00    +0.000 A 
ENDBRANCH   9  10
ENDBRANCH   1   9
TORSDOF 5
ENDMDL
MODEL 9
REMARK VINA RESULT:    -4.852      1.388      1.688
REMARK INTER + INTRA:          -6.155
REMARK INTER:                  -5.954
REMARK INTRA:                  -0.202
REMARK UNBOUND:                -0.169
REMARK  Name = PHE
REMARK  5 active torsions:
REMARK  status: ('A' for Active; 'I' for Inactive)
REMARK    1  A    between atoms: N_1  and  CA_2
REMARK    2  A    between atoms: CA_2  and  C_3
REMARK    3  A    between atoms: CA_2  and  CB_5
REMARK    4  A    between atoms: C_3  and  OXT_12
REMARK    5  A    between atoms: CB_5  and  CG_6
REMARK                            x       y       z     vdW  Elec       q    Type
REMARK                         _______ _______ _______ _____ _____    ______ ____
ROOT
ATOM      1  CA  PHE A   1      36.786   0.440   5.119  0.00  0.00    +0.165 C 
ENDROOT
BRANCH   1   2
ATOM      2  N   PHE A   1      37.460  -0.552   4.277  0.00  0.00    -0.318 NA
ATOM      3  H1  PHE A   1      38.063  -0.065   3.574  0.00  0.00    +0.119 HD
ATOM      4  H2  PHE A   1      36.736  -1.092   3.749  0.00  0.00    +0.119 HD
ENDBRANCH   1   2
BRANCH   1   5
ATOM      5  C   PHE A   1      35.894   1.326   4.291  0.00  0.00    +0.322 C 
ATOM      6  O   PHE A   1      34.793   0.895   3.853  0.00  0.00    -0.249 OA
BRANCH   5   7
ATOM      7  OXT PHE A   1      36.290   2.630   4.004  0.00  0.00    -0.480 OA
ATOM      8  HXT PHE A   1      36.638   2.877   3.086  0.00  0.00    +0.295 HD
ENDBRANCH   5   7
ENDBRANCH   1   5
BRANCH   1   9
ATOM      9  CB  PHE A   1      37.814   1.284   5.894  0.00  0.00    +0.065 C 
BRANCH   9  10
ATOM     10  CG  PHE A   1      37.363   1.533   7.311  0.00  0.00    -0.045 A 
ATOM     11  CD1 PHE A   1      36.450   0.660   7.926  0.00  0.00    +0.004 A 
ATOM     12  CD2 PHE A   1      37.886   2.611   8.045  0.00  0.00    +0.004 A 
ATOM     13  CE1 PHE A   1      36.052   0.875   9.250  0.00  0.00    +0.000 A 
ATOM     14  CE2 PHE A   1      37.486   2.822   9.368  0.00  0.00    +0.000 A 
ATOM     15  CZ  PHE A   1      36.569   1.956   9.969  0.00  0.00    +0.000 A 
ENDBRANCH   9  10
ENDBRANCH   1   9
TORSDOF 5
ENDMDL
MODEL 10
REMARK VINA RESULT:    -4.756      3.302      5.031
REMARK INTER + INTRA:          -6.037
REMARK INTER:                  -5.983
REMARK INTRA:                  -0.054
REMARK UNBOUND:                -0.169
REMARK  Name = PHE
REMARK  5 active torsions:
REMARK  status: ('A' for Active; 'I' for Inactive)
REMARK    1  A    between atoms: N_1  and  CA_2
REMARK    2  A    between atoms: CA_2  and  C_3
REMARK    3  A    between atoms: CA_2  and  CB_5
REMARK    4  A    between atoms: C_3  and  OXT_12
REMARK    5  A    between atoms: CB_5  and  CG_6
REMARK                            x       y       z     vdW  Elec       q    Type
REMARK                         _______ _______ _______ _____ _____    ______ ____
ROOT
ATOM      1  CA  PHE A   1      37.123   0.937   8.870  0.00  0.00    +0.165 C 
ENDROOT
BRANCH   1   2
ATOM      2  N   PHE A   1      37.125  -0.529   8.894  0.00  0.00    -0.318 NA
ATOM      3  H1  PHE A   1      36.344  -0.871   9.501  0.00  0.00    +0.119 HD
ATOM      4  H2  PHE A   1      38.022  -0.857   9.322  0.00  0.00    +0.119 HD
ENDBRANCH   1   2
BRANCH   1   5
ATOM      5  C   PHE A   1      36.533   1.492  10.138  0.00  0.00    +0.322 C 
ATOM      6  O   PHE A   1      35.815   2.528  10.109  0.00  0.00    -0.249 OA
BRANCH   5   7
ATOM      7  OXT PHE A   1      36.784   0.858  11.352  0.00  0.00    -0.480 OA
ATOM      8  HXT PHE A   1      37.131   1.380  12.148  0.00  0.00    +0.295 HD
ENDBRANCH   5   7
ENDBRANCH   1   5
BRANCH   1   9
ATOM      9  CB  PHE A   1      36.352   1.458   7.644  0.00  0.00    +0.065 C 
BRANCH   9  10
ATOM     10  CG  PHE A   1      36.814   0.784   6.377  0.00  0.00    -0.045 A 
ATOM     11  CD1 PHE A   1      38.086   1.065   5.850  0.00  0.00    +0.004 A 
ATOM     12  CD2 PHE A   1      35.999  -0.166   5.738  0.00  0.00    +0.004 A 
ATOM     13  CE1 PHE A   1      38.527   0.420   4.690  0.00  0.00    +0.000 A 
ATOM     14  CE2 PHE A   1      36.444  -0.809   4.578  0.00  0.00    +0.000 A 
ATOM     15  CZ  PHE A   1      37.705  -0.515   4.054  0.00  0.00    +0.000 A 
ENDBRANCH   9  10
ENDBRANCH   1   9
TORSDOF 5
ENDMDL
MODEL 11
REMARK VINA RESULT:    -4.750      2.804      3.581
REMARK INTER + INTRA:          -6.030
REMARK INTER:                  -5.847
REMARK INTRA:                  -0.183
REMARK UNBOUND:                -0.169
REMARK  Name = PHE
REMARK  5 active torsions:
REMARK  status: ('A' for Active; 'I' for Inactive)
REMARK    1  A    between atoms: N_1  and  CA_2
REMARK    2  A    between atoms: CA_2  and  C_3
REMARK    3  A    between atoms: CA_2  and  CB_5
REMARK    4  A    between atoms: C_3  and  OXT_12
REMARK    5  A    between atoms: CB_5  and  CG_6
REMARK                            x       y       z     vdW  Elec       q    Type
REMARK                         _______ _______ _______ _____ _____    ______ ____
ROOT
ATOM      1  CA  PHE A   1      38.223   2.336   5.050  0.00  0.00    +0.165 C 
ENDROOT
BRANCH   1   2
ATOM      2  N   PHE A   1      39.234   1.595   4.291  0.00  0.00    -0.318 NA
ATOM      3  H1  PHE A   1      39.687   2.231   3.596  0.00  0.00    +0.119 HD
ATOM      4  H2  PHE A   1      38.758   0.832   3.755  0.00  0.00    +0.119 HD
ENDBRANCH   1   2
BRANCH   1   5
ATOM      5  C   PHE A   1      37.768   3.552   4.289  0.00  0.00    +0.322 C 
ATOM      6  O   PHE A   1      38.464   4.604   4.291  0.00  0.00    -0.249 OA
BRANCH   5   7
ATOM      7  OXT PHE A   1      36.571   3.516   3.580  0.00  0.00    -0.480 OA
ATOM      8  HXT PHE A   1      36.308   4.277   2.965  0.00  0.00    +0.295 HD
ENDBRANCH   5   7
ENDBRANCH   1   5
BRANCH   1   9
ATOM      9  CB  PHE A   1      38.769   2.740   6.432  0.00  0.00    +0.065 C 
BRANCH   9  10
ATOM     10  CG  PHE A   1      37.869   2.255   7.540  0.00  0.00    -0.045 A 
ATOM     11  CD1 PHE A   1      37.083   1.104   7.361  0.00  0.00    +0.004 A 
ATOM     12  CD2 PHE A   1      37.843   2.920   8.778  0.00  0.00    +0.004 A 
ATOM     13  CE1 PHE A   1      36.269   0.638   8.399  0.00  0.00    +0.000 A 
ATOM     14  CE2 PHE A   1      37.027   2.451   9.813  0.00  0.00    +0.000 A 
ATOM     15  CZ  PHE A   1      36.241   1.312   9.623  0.00  0.00    +0.000 A 
ENDBRANCH   9  10
ENDBRANCH   1   9
TORSDOF 5
ENDMDL
MODEL 12
REMARK VINA RESULT:    -4.693      1.972      2.544
REMARK INTER + INTRA:          -5.960
REMARK INTER:                  -5.823
REMARK INTRA:                  -0.137
REMARK UNBOUND:                -0.169
REMARK  Name = PHE
REMARK  5 active torsions:
REMARK  status: ('A' for Active; 'I' for Inactive)
REMARK    1  A    between atoms: N_1  and  CA_2
REMARK    2  A    between atoms: CA_2  and  C_3
REMARK    3  A    between atoms: CA_2  and  CB_5
REMARK    4  A    between atoms: C_3  and  OXT_12
REMARK    5  A    between atoms: CB_5  and  CG_6
REMARK                            x       y       z     vdW  Elec       q    Type
REMARK                         _______ _______ _______ _____ _____    ______ ____
ROOT
ATOM      1  CA  PHE A   1      35.877   1.476   4.710  0.00  0.00    +0.165 C 
ENDROOT
BRANCH   1   2
ATOM      2  N   PHE A   1      34.907   0.689   3.944  0.00  0.00    -0.318 NA
ATOM      3  H1  PHE A   1      35.149  -0.327   4.009  0.00  0.00    +0.119 HD
ATOM      4  H2  PHE A   1      34.972   0.963   2.936  0.00  0.00    +0.119 HD
ENDBRANCH   1   2
BRANCH   1   5
ATOM      5  C   PHE A   1      36.765   2.271   3.791  0.00  0.00    +0.322 C 
ATOM      6  O   PHE A   1      37.762   1.728   3.239  0.00  0.00    -0.249 OA
BRANCH   5   7
ATOM      7  OXT PHE A   1      36.487   3.613   3.550  0.00  0.00    -0.480 OA
ATOM      8  HXT PHE A   1      37.129   4.338   3.845  0.00  0.00    +0.295 HD
ENDBRANCH   5   7
ENDBRANCH   1   5
BRANCH   1   9
ATOM      9  CB  PHE A   1      36.721   0.563   5.618  0.00  0.00    +0.065 C 
BRANCH   9  10
ATOM     10  CG  PHE A   1      36.917   1.176   6.982  0.00  0.00    -0.045 A 
ATOM     11  CD1 PHE A   1      37.872   2.189   7.171  0.00  0.00    +0.004 A 
ATOM     12  CD2 PHE A   1      36.116   0.775   8.064  0.00  0.00    +0.004 A 
ATOM     13  CE1 PHE A   1      38.036   2.777   8.429  0.00  0.00    +0.000 A 
ATOM     14  CE2 PHE A   1      36.283   1.366   9.321  0.00  0.00    +0.000 A 
ATOM     15  CZ  PHE A   1      37.243   2.365   9.503  0.00  0.00    +0.000 A 
ENDBRANCH   9  10
ENDBRANCH   1   9
TORSDOF 5
ENDMDL
MODEL 13
REMARK VINA RESULT:    -4.632      3.140      4.894
REMARK INTER + INTRA:          -5.884
REMARK INTER:                  -5.734
REMARK INTRA:                  -0.151
REMARK UNBOUND:                -0.169
REMARK  Name = PHE
REMARK  5 active torsions:
REMARK  status: ('A' for Active; 'I' for Inactive)
REMARK    1  A    between atoms: N_1  and  CA_2
REMARK    2  A    between atoms: CA_2  and  C_3
REMARK    3  A    between atoms: CA_2  and  CB_5
REMARK    4  A    between atoms: C_3  and  OXT_12
REMARK    5  A    between atoms: CB_5  and  CG_6
REMARK                            x       y       z     vdW  Elec       q    Type
REMARK                         _______ _______ _______ _____ _____    ______ ____
ROOT
ATOM      1  CA  PHE A   1      37.207   0.975   8.227  0.00  0.00    +0.165 C 
ENDROOT
BRANCH   1   2
ATOM      2  N   PHE A   1      36.710  -0.028   9.174  0.00  0.00    -0.318 NA
ATOM      3  H1  PHE A   1      37.507  -0.400   9.741  0.00  0.00    +0.119 HD
ATOM      4  H2  PHE A   1      36.307  -0.829   8.634  0.00  0.00    +0.119 HD
ENDBRANCH   1   2
BRANCH   1   5
ATOM      5  C   PHE A   1      37.421   2.298   8.913  0.00  0.00    +0.322 C 
ATOM      6  O   PHE A   1      36.909   2.521  10.044  0.00  0.00    -0.249 OA
BRANCH   5   7
ATOM      7  OXT PHE A   1      38.185   3.282   8.294  0.00  0.00    -0.480 OA
ATOM      8  HXT PHE A   1      39.053   3.603   8.707  0.00  0.00    +0.295 HD
ENDBRANCH   5   7
ENDBRANCH   1   5
BRANCH   1   9
ATOM      9  CB  PHE A   1      36.235   1.133   7.044  0.00  0.00    +0.065 C 
BRANCH   9  10
ATOM     10  CG  PHE A   1      36.483   0.086   5.987  0.00  0.00    -0.045 A 
ATOM     11  CD1 PHE A   1      35.601  -0.998   5.845  0.00  0.00    +0.004 A 
ATOM     12  CD2 PHE A   1      37.570   0.210   5.105  0.00  0.00    +0.004 A 
ATOM     13  CE1 PHE A   1      35.815  -1.954   4.847  0.00  0.00    +0.000 A 
ATOM     14  CE2 PHE A   1      37.781  -0.749   4.108  0.00  0.00    +0.000 A 
ATOM     15  CZ  PHE A   1      36.905  -1.830   3.981  0.00  0.00    +0.000 A 
ENDBRANCH   9  10
ENDBRANCH   1   9
TORSDOF 5
ENDMDL
MODEL 14
REMARK VINA RESULT:    -4.621      1.843      2.091
REMARK INTER + INTRA:          -5.870
REMARK INTER:                  -5.669
REMARK INTRA:                  -0.202
REMARK UNBOUND:                -0.169
REMARK  Name = PHE
REMARK  5 active torsions:
REMARK  status: ('A' for Active; 'I' for Inactive)
REMARK    1  A    between atoms: N_1  and  CA_2
REMARK    2  A    between atoms: CA_2  and  C_3
REMARK    3  A    between atoms: CA_2  and  CB_5
REMARK    4  A    between atoms: C_3  and  OXT_12
REMARK    5  A    between atoms: CB_5  and  CG_6
REMARK                            x       y       z     vdW  Elec       q    Type
REMARK                         _______ _______ _______ _____ _____    ______ ____
ROOT
ATOM      1  CA  PHE A   1      36.715   0.544   5.077  0.00  0.00    +0.165 C 
ENDROOT
BRANCH   1   2
ATOM      2  N   PHE A   1      35.442   0.442   4.359  0.00  0.00    -0.318 NA
ATOM      3  H1  PHE A   1      34.661   0.318   5.044  0.00  0.00    +0.119 HD
ATOM      4  H2  PHE A   1      35.465  -0.410   3.751  0.00  0.00    +0.119 HD
ENDBRANCH   1   2
BRANCH   1   5
ATOM      5  C   PHE A   1      37.821  -0.119   4.300  0.00  0.00    +0.322 C 
ATOM      6  O   PHE A   1      39.028   0.121   4.576  0.00  0.00    -0.249 OA
BRANCH   5   7
ATOM      7  OXT PHE A   1      37.509  -1.001   3.270  0.00  0.00    -0.480 OA
ATOM      8  HXT PHE A   1      37.428  -0.675   2.314  0.00  0.00    +0.295 HD
ENDBRANCH   5   7
ENDBRANCH   1   5
BRANCH   1   9
ATOM      9  CB  PHE A   1      36.597  -0.076   6.481  0.00  0.00    +0.065 C 
BRANCH   9  10
ATOM     10  CG  PHE A   1      36.844   0.951   7.557  0.00  0.00    -0.045 A 
ATOM     11  CD1 PHE A   1      36.128   0.897   8.765  0.00  0.00    +0.004 A 
ATOM     12  CD2 PHE A   1      37.823   1.944   7.382  0.00  0.00    +0.004 A 
ATOM     13  CE1 PHE A   1      36.376   1.833   9.774  0.00  0.00    +0.000 A 
ATOM     14  CE2 PHE A   1      38.068   2.878   8.394  0.00  0.00    +0.000 A 
ATOM     15  CZ  PHE A   1      37.344   2.823   9.587  0.00  0.00    +0.000 A 
ENDBRANCH   9  10
ENDBRANCH   1   9
TORSDOF 5
ENDMDL
MODEL 15
REMARK VINA RESULT:    -4.583     11.741     12.882
REMARK INTER + INTRA:          -5.824
REMARK INTER:                  -5.627
REMARK INTRA:                  -0.198
REMARK UNBOUND:                -0.169
REMARK  Name = PHE
REMARK  5 active torsions:
REMARK  status: ('A' for Active; 'I' for Inactive)
REMARK    1  A    between atoms: N_1  and  CA_2
REMARK    2  A    between atoms: CA_2  and  C_3
REMARK    3  A    between atoms: CA_2  and  CB_5
REMARK    4  A    between atoms: C_3  and  OXT_12
REMARK    5  A    between atoms: CB_5  and  CG_6
REMARK                            x       y       z     vdW  Elec       q    Type
REMARK                         _______ _______ _______ _____ _____    ______ ____
ROOT
ATOM      1  CA  PHE A   1      28.550  -4.922  12.783  0.00  0.00    +0.165 C 
ENDROOT
BRANCH   1   2
ATOM      2  N   PHE A   1      29.724  -4.295  13.397  0.00  0.00    -0.318 NA
ATOM      3  H1  PHE A   1      30.445  -5.025  13.603  0.00  0.00    +0.119 HD
ATOM      4  H2  PHE A   1      29.439  -3.869  14.309  0.00  0.00    +0.119 HD
ENDBRANCH   1   2
BRANCH   1   5
ATOM      5  C   PHE A   1      27.344  -4.029  12.900  0.00  0.00    +0.322 C 
ATOM      6  O   PHE A   1      26.188  -4.525  12.986  0.00  0.00    -0.249 OA
BRANCH   5   7
ATOM      7  OXT PHE A   1      27.507  -2.647  12.910  0.00  0.00    -0.480 OA
ATOM      8  HXT PHE A   1      27.774  -2.161  13.757  0.00  0.00    +0.295 HD
ENDBRANCH   5   7
ENDBRANCH   1   5
BRANCH   1   9
ATOM      9  CB  PHE A   1      28.269  -6.293  13.425  0.00  0.00    +0.065 C 
BRANCH   9  10
ATOM     10  CG  PHE A   1      28.690  -7.421  12.518  0.00  0.00    -0.045 A 
ATOM     11  CD1 PHE A   1      29.375  -8.531  13.040  0.00  0.00    +0.004 A 
ATOM     12  CD2 PHE A   1      28.362  -7.396  11.152  0.00  0.00    +0.004 A 
ATOM     13  CE1 PHE A   1      29.742  -9.590  12.204  0.00  0.00    +0.000 A 
ATOM     14  CE2 PHE A   1      28.731  -8.457  10.319  0.00  0.00    +0.000 A 
ATOM     15  CZ  PHE A   1      29.421  -9.552  10.845  0.00  0.00    +0.000 A 
ENDBRANCH   9  10
ENDBRANCH   1   9
TORSDOF 5
ENDMDL
MODEL 16
REMARK VINA RESULT:    -4.502     11.549     12.849
REMARK INTER + INTRA:          -5.724
REMARK INTER:                  -5.573
REMARK INTRA:                  -0.152
REMARK UNBOUND:                -0.169
REMARK  Name = PHE
REMARK  5 active torsions:
REMARK  status: ('A' for Active; 'I' for Inactive)
REMARK    1  A    between atoms: N_1  and  CA_2
REMARK    2  A    between atoms: CA_2  and  C_3
REMARK    3  A    between atoms: CA_2  and  CB_5
REMARK    4  A    between atoms: C_3  and  OXT_12
REMARK    5  A    between atoms: CB_5  and  CG_6
REMARK                            x       y       z     vdW  Elec       q    Type
REMARK                         _______ _______ _______ _____ _____    ______ ____
ROOT
ATOM      1  CA  PHE A   1      29.323  -6.027  12.041  0.00  0.00    +0.165 C 
ENDROOT
BRANCH   1   2
ATOM      2  N   PHE A   1      30.767  -5.983  11.793  0.00  0.00    -0.318 NA
ATOM      3  H1  PHE A   1      31.278  -5.929  12.705  0.00  0.00    +0.119 HD
ATOM      4  H2  PHE A   1      30.990  -5.113  11.256  0.00  0.00    +0.119 HD
ENDBRANCH   1   2
BRANCH   1   5
ATOM      5  C   PHE A   1      28.903  -4.902  12.950  0.00  0.00    +0.322 C 
ATOM      6  O   PHE A   1      27.684  -4.604  13.074  0.00  0.00    -0.249 OA
BRANCH   5   7
ATOM      7  OXT PHE A   1      29.866  -4.186  13.654  0.00  0.00    -0.480 OA
ATOM      8  HXT PHE A   1      30.842  -4.452  13.617  0.00  0.00    +0.295 HD
ENDBRANCH   5   7
ENDBRANCH   1   5
BRANCH   1   9
ATOM      9  CB  PHE A   1      28.916  -7.384  12.642  0.00  0.00    +0.065 C 
BRANCH   9  10
ATOM     10  CG  PHE A   1      29.271  -8.521  11.717  0.00  0.00    -0.045 A 
ATOM     11  CD1 PHE A   1      30.111  -9.557  12.160  0.00  0.00    +0.004 A 
ATOM     12  CD2 PHE A   1      28.728  -8.582  10.423  0.00  0.00    +0.004 A 
ATOM     13  CE1 PHE A   1      30.418 -10.626  11.312  0.00  0.00    +0.000 A 
ATOM     14  CE2 PHE A   1      29.038  -9.653   9.578  0.00  0.00    +0.000 A 
ATOM     15  CZ  PHE A   1      29.883 -10.673  10.022  0.00  0.00    +0.000 A 
ENDBRANCH   9  10
ENDBRANCH   1   9
TORSDOF 5
ENDMDL
MODEL 17
REMARK VINA RESULT:    -4.496     11.268     12.441
REMARK INTER + INTRA:          -5.717
REMARK INTER:                  -5.518
REMARK INTRA:                  -0.198
REMARK UNBOUND:                -0.169
REMARK  Name = PHE
REMARK  5 active torsions:
REMARK  status: ('A' for Active; 'I' for Inactive)
REMARK    1  A    between atoms: N_1  and  CA_2
REMARK    2  A    between atoms: CA_2  and  C_3
REMARK    3  A    between atoms: CA_2  and  CB_5
REMARK    4  A    between atoms: C_3  and  OXT_12
REMARK    5  A    between atoms: CB_5  and  CG_6
REMARK                            x       y       z     vdW  Elec       q    Type
REMARK                         _______ _______ _______ _____ _____    ______ ____
ROOT
ATOM      1  CA  PHE A   1      28.386  -5.396   1.750  0.00  0.00    +0.165 C 
ENDROOT
BRANCH   1   2
ATOM      2  N   PHE A   1      28.670  -4.388   2.775  0.00  0.00    -0.318 NA
ATOM      3  H1  PHE A   1      29.189  -4.831   3.569  0.00  0.00    +0.119 HD
ATOM      4  H2  PHE A   1      27.763  -4.029   3.155  0.00  0.00    +0.119 HD
ENDBRANCH   1   2
BRANCH   1   5
ATOM      5  C   PHE A   1      27.090  -6.104   2.042  0.00  0.00    +0.322 C 
ATOM      6  O   PHE A   1      26.557  -6.017   3.181  0.00  0.00    -0.249 OA
BRANCH   5   7
ATOM      7  OXT PHE A   1      26.478  -6.862   1.048  0.00  0.00    -0.480 OA
ATOM      8  HXT PHE A   1      26.536  -7.873   1.055  0.00  0.00    +0.295 HD
ENDBRANCH   5   7
ENDBRANCH   1   5
BRANCH   1   9
ATOM      9  CB  PHE A   1      29.542  -6.408   1.649  0.00  0.00    +0.065 C 
BRANCH   9  10
ATOM     10  CG  PHE A   1      29.998  -6.579   0.222  0.00  0.00    -0.045 A 
ATOM     11  CD1 PHE A   1      30.974  -5.723  -0.316  0.00  0.00    +0.004 A 
ATOM     12  CD2 PHE A   1      29.487  -7.622  -0.569  0.00  0.00    +0.004 A 
ATOM     13  CE1 PHE A   1      31.418  -5.898  -1.631  0.00  0.00    +0.000 A 
ATOM     14  CE2 PHE A   1      29.933  -7.794  -1.883  0.00  0.00    +0.000 A 
ATOM     15  CZ  PHE A   1      30.896  -6.932  -2.414  0.00  0.00    +0.000 A 
ENDBRANCH   9  10
ENDBRANCH   1   9
TORSDOF 5
ENDMDL
MODEL 18
REMARK VINA RESULT:    -4.419     11.505     12.722
REMARK INTER + INTRA:          -5.622
REMARK INTER:                  -5.468
REMARK INTRA:                  -0.154
REMARK UNBOUND:                -0.169
REMARK  Name = PHE
REMARK  5 active torsions:
REMARK  status: ('A' for Active; 'I' for Inactive)
REMARK    1  A    between atoms: N_1  and  CA_2
REMARK    2  A    between atoms: CA_2  and  C_3
REMARK    3  A    between atoms: CA_2  and  CB_5
REMARK    4  A    between atoms: C_3  and  OXT_12
REMARK    5  A    between atoms: CB_5  and  CG_6
REMARK                            x       y       z     vdW  Elec       q    Type
REMARK                         _______ _______ _______ _____ _____    ______ ____
ROOT
ATOM      1  CA  PHE A   1      28.120  -5.600  12.265  0.00  0.00    +0.165 C 
ENDROOT
BRANCH   1   2
ATOM      2  N   PHE A   1      26.900  -5.348  11.494  0.00  0.00    -0.318 NA
ATOM      3  H1  PHE A   1      26.595  -6.229  11.020  0.00  0.00    +0.119 HD
ATOM      4  H2  PHE A   1      27.113  -4.647  10.746  0.00  0.00    +0.119 HD
ENDBRANCH   1   2
BRANCH   1   5
ATOM      5  C   PHE A   1      28.544  -4.364  13.013  0.00  0.00    +0.322 C 
ATOM      6  O   PHE A   1      27.766  -3.377  13.108  0.00  0.00    -0.249 OA
BRANCH   5   7
ATOM      7  OXT PHE A   1      29.805  -4.311  13.601  0.00  0.00    -0.480 OA
ATOM      8  HXT PHE A   1      30.137  -3.463  14.044  0.00  0.00    +0.295 HD
ENDBRANCH   5   7
ENDBRANCH   1   5
BRANCH   1   9
ATOM      9  CB  PHE A   1      29.253  -6.087  11.344  0.00  0.00    +0.065 C 
BRANCH   9  10
ATOM     10  CG  PHE A   1      29.314  -7.593  11.299  0.00  0.00    -0.045 A 
ATOM     11  CD1 PHE A   1      28.615  -8.300  10.305  0.00  0.00    +0.004 A 
ATOM     12  CD2 PHE A   1      30.106  -8.301  12.218  0.00  0.00    +0.004 A 
ATOM     13  CE1 PHE A   1      28.693  -9.695  10.246  0.00  0.00    +0.000 A 
ATOM     14  CE2 PHE A   1      30.181  -9.696  12.155  0.00  0.00    +0.000 A 
ATOM     15  CZ  PHE A   1      29.475 -10.392  11.171  0.00  0.00    +0.000 A 
ENDBRANCH   9  10
ENDBRANCH   1   9
TORSDOF 5
ENDMDL
MODEL 19
REMARK VINA RESULT:    -4.401      2.975      4.901
REMARK INTER + INTRA:          -5.599
REMARK INTER:                  -5.436
REMARK INTRA:                  -0.163
REMARK UNBOUND:                -0.169
REMARK  Name = PHE
REMARK  5 active torsions:
REMARK  status: ('A' for Active; 'I' for Inactive)
REMARK    1  A    between atoms: N_1  and  CA_2
REMARK    2  A    between atoms: CA_2  and  C_3
REMARK    3  A    between atoms: CA_2  and  CB_5
REMARK    4  A    between atoms: C_3  and  OXT_12
REMARK    5  A    between atoms: CB_5  and  CG_6
REMARK                            x       y       z     vdW  Elec       q    Type
REMARK                         _______ _______ _______ _____ _____    ______ ____
ROOT
ATOM      1  CA  PHE A   1      37.367   0.286   7.640  0.00  0.00    +0.165 C 
ENDROOT
BRANCH   1   2
ATOM      2  N   PHE A   1      36.965  -0.125   8.988  0.00  0.00    -0.318 NA
ATOM      3  H1  PHE A   1      37.304   0.577   9.685  0.00  0.00    +0.119 HD
ATOM      4  H2  PHE A   1      37.425  -1.038   9.212  0.00  0.00    +0.119 HD
ENDBRANCH   1   2
BRANCH   1   5
ATOM      5  C   PHE A   1      38.371   1.406   7.700  0.00  0.00    +0.322 C 
ATOM      6  O   PHE A   1      39.526   1.255   7.218  0.00  0.00    -0.249 OA
BRANCH   5   7
ATOM      7  OXT PHE A   1      38.022   2.615   8.295  0.00  0.00    -0.480 OA
ATOM      8  HXT PHE A   1      38.453   3.483   8.000  0.00  0.00    +0.295 HD
ENDBRANCH   5   7
ENDBRANCH   1   5
BRANCH   1   9
ATOM      9  CB  PHE A   1      36.139   0.707   6.812  0.00  0.00    +0.065 C 
BRANCH   9  10
ATOM     10  CG  PHE A   1      35.991  -0.147   5.578  0.00  0.00    -0.045 A 
ATOM     11  CD1 PHE A   1      36.052  -1.548   5.676  0.00  0.00    +0.004 A 
ATOM     12  CD2 PHE A   1      35.743   0.445   4.328  0.00  0.00    +0.004 A 
ATOM     13  CE1 PHE A   1      35.886  -2.341   4.536  0.00  0.00    +0.000 A 
ATOM     14  CE2 PHE A   1      35.579  -0.352   3.191  0.00  0.00    +0.000 A 
ATOM     15  CZ  PHE A   1      35.652  -1.743   3.295  0.00  0.00    +0.000 A 
ENDBRANCH   9  10
ENDBRANCH   1   9
TORSDOF 5
ENDMDL
MODEL 20
REMARK VINA RESULT:    -4.291      2.372      3.236
REMARK INTER + INTRA:          -5.463
REMARK INTER:                  -5.280
REMARK INTRA:                  -0.183
REMARK UNBOUND:                -0.169
REMARK  Name = PHE
REMARK  5 active torsions:
REMARK  status: ('A' for Active; 'I' for Inactive)
REMARK    1  A    between atoms: N_1  and  CA_2
REMARK    2  A    between atoms: CA_2  and  C_3
REMARK    3  A    between atoms: CA_2  and  CB_5
REMARK    4  A    between atoms: C_3  and  OXT_12
REMARK    5  A    between atoms: CB_5  and  CG_6
REMARK                            x       y       z     vdW  Elec       q    Type
REMARK                         _______ _______ _______ _____ _____    ______ ____
ROOT
ATOM      1  CA  PHE A   1      36.097   0.040   6.045  0.00  0.00    +0.165 C 
ENDROOT
BRANCH   1   2
ATOM      2  N   PHE A   1      36.281  -0.184   7.482  0.00  0.00    -0.318 NA
ATOM      3  H1  PHE A   1      37.303  -0.226   7.703  0.00  0.00    +0.119 HD
ATOM      4  H2  PHE A   1      35.867  -1.112   7.733  0.00  0.00    +0.119 HD
ENDBRANCH   1   2
BRANCH   1   5
ATOM      5  C   PHE A   1      35.343  -1.103   5.418  0.00  0.00    +0.322 C 
ATOM      6  O   PHE A   1      34.657  -0.919   4.376  0.00  0.00    -0.249 OA
BRANCH   5   7
ATOM      7  OXT PHE A   1      35.401  -2.368   5.995  0.00  0.00    -0.480 OA
ATOM      8  HXT PHE A   1      35.215  -2.499   6.981  0.00  0.00    +0.295 HD
ENDBRANCH   5   7
ENDBRANCH   1   5
BRANCH   1   9
ATOM      9  CB  PHE A   1      37.456   0.234   5.348  0.00  0.00    +0.065 C 
BRANCH   9  10
ATOM     10  CG  PHE A   1      37.703   1.685   5.022  0.00  0.00    -0.045 A 
ATOM     11  CD1 PHE A   1      37.005   2.302   3.969  0.00  0.00    +0.004 A 
ATOM     12  CD2 PHE A   1      38.595   2.447   5.795  0.00  0.00    +0.004 A 
ATOM     13  CE1 PHE A   1      37.213   3.655   3.683  0.00  0.00    +0.000 A 
ATOM     14  CE2 PHE A   1      38.800   3.800   5.506  0.00  0.00    +0.000 A 
ATOM     15  CZ  PHE A   1      38.111   4.402   4.450  0.00  0.00    +0.000 A 
ENDBRANCH   9  10
ENDBRANCH   1   9
TORSDOF 5
ENDMDL
