REMARK  Name = Inv_4_Epoxido.pdb
REMARK  7 active torsions:
REMARK  status: ('A' for Active; 'I' for Inactive)
REMARK    1  A    between atoms: C1_1  and  C2_2
REMARK    2  A    between atoms: C2_2  and  C3_3
REMARK    3  A    between atoms: C2_2  and  C4_4
REMARK    4  A    between atoms: C4_4  and  C5_6
REMARK    5  A    between atoms: C6_7  and  C7_8
REMARK    6  A    between atoms: C10_11  and  C11_12
REMARK    7  A    between atoms: C15_17  and  C16_18
REMARK                            x       y       z     vdW  Elec       q    Type
REMARK                         _______ _______ _______ _____ _____    ______ ____
ROOT
ATOM      1  C5  UNL     1      -0.576  -0.446   0.132  0.00  0.00    +0.000 C 
ATOM      2  C6  UNL     1      -1.214  -1.823  -0.114  0.00  0.00    +0.000 C 
ATOM      3  C7  UNL     1      -2.102  -2.327   1.026  0.00  0.00    +0.000 C 
ATOM      4  C8  UNL     1       0.013  -2.718  -0.299  0.00  0.00    +0.000 C 
ATOM      5  C9  UNL     1       1.022  -2.222   0.733  0.00  0.00    +0.000 C 
ATOM      6  C10 UNL     1       0.684  -0.738   0.975  0.00  0.00    +0.000 C 
ENDROOT
BRANCH   6   7
ATOM      7  C11 UNL     1       1.804   0.264   0.749  0.00  0.00    +0.000 C 
ATOM      8  C12 UNL     1       2.022   1.198   1.775  0.00  0.00    +0.000 C 
ATOM      9  N1  UNL     1       2.970   2.159   1.769  0.00  0.00    +0.000 NA
ATOM     10  C13 UNL     1       3.757   2.210   0.684  0.00  0.00    +0.000 C 
ATOM     11  C14 UNL     1       3.622   1.352  -0.393  0.00  0.00    +0.000 C 
ATOM     12  C15 UNL     1       2.624   0.357  -0.401  0.00  0.00    +0.000 C 
BRANCH  12  13
ATOM     13  C16 UNL     1       2.506  -0.537  -1.618  0.00  0.00    +0.000 C 
ATOM     14  C17 UNL     1       1.589  -0.157  -2.761  0.00  0.00    +0.000 C 
ATOM     15  O2  UNL     1       3.003  -0.025  -2.876  0.00  0.00    +0.000 OA
ENDBRANCH  12  13
ENDBRANCH   6   7
BRANCH   1  16
ATOM     16  C4  UNL     1      -1.524   0.560   0.783  0.00  0.00    +0.000 C 
ATOM     17  O1  UNL     1      -1.497   0.787   1.992  0.00  0.00    +0.000 OA
BRANCH  16  19
ATOM     18  C1  UNL     1      -1.833   2.516  -0.727  0.00  0.00    +0.000 C 
ATOM     19  C2  UNL     1      -2.502   1.275  -0.147  0.00  0.00    +0.000 C 
ATOM     20  C3  UNL     1      -3.787   1.639   0.590  0.00  0.00    +0.000 C 
ENDBRANCH  16  19
ENDBRANCH   1  16
TORSDOF 4
