REMARK  Name = Inv_3_Ciano_Original.pdb
REMARK  7 active torsions:
REMARK  status: ('A' for Active; 'I' for Inactive)
REMARK    1  A    between atoms: C1_1  and  C2_2
REMARK    2  A    between atoms: C2_2  and  C3_3
REMARK    3  A    between atoms: C3_3  and  C4_4
REMARK    4  A    between atoms: C4_4  and  C5_6
REMARK    5  A    between atoms: C6_7  and  C7_8
REMARK    6  A    between atoms: C10_11  and  C11_12
REMARK    7  A    between atoms: C15_17  and  C16_18
REMARK                            x       y       z     vdW  Elec       q    Type
REMARK                         _______ _______ _______ _____ _____    ______ ____
ROOT
ATOM      1  C5  UNL     1       0.171   0.120  -0.363  0.00  0.00    +0.000 C 
ATOM      2  C6  UNL     1       0.048   1.257  -1.407  0.00  0.00    +0.000 C 
ATOM      3  C7  UNL     1       1.344   1.962  -1.799  0.00  0.00    +0.000 C 
ATOM      4  C8  UNL     1      -0.994   2.240  -0.852  0.00  0.00    +0.000 C 
ATOM      5  C9  UNL     1      -1.229   1.837   0.596  0.00  0.00    +0.000 C 
ATOM      6  C10 UNL     1      -1.001   0.320   0.630  0.00  0.00    +0.000 C 
ENDROOT
BRANCH   6   7
ATOM      7  C11 UNL     1      -2.291  -0.441   0.342  0.00  0.00    +0.000 C 
ATOM      8  C12 UNL     1      -2.632  -0.895  -0.929  0.00  0.00    +0.000 C 
ATOM      9  N1  UNL     1      -3.765  -1.569  -1.232  0.00  0.00    +0.000 NA
ATOM     10  C13 UNL     1      -4.631  -1.805  -0.231  0.00  0.00    +0.000 C 
ATOM     11  C14 UNL     1      -4.414  -1.394   1.068  0.00  0.00    +0.000 C 
ATOM     12  C15 UNL     1      -3.234  -0.702   1.358  0.00  0.00    +0.000 C 
BRANCH  12  13
ATOM     13  C16 UNL     1      -3.032  -0.274   2.714  0.00  0.00    +0.000 C 
ATOM     14  N2  UNL     1      -2.883   0.064   3.814  0.00  0.00    +0.000 NA
ENDBRANCH  12  13
ENDBRANCH   6   7
BRANCH   1  15
ATOM     15  C4  UNL     1       1.506   0.117   0.391  0.00  0.00    +0.000 C 
ATOM     16  O1  UNL     1       1.750   0.937   1.275  0.00  0.00    +0.000 OA
BRANCH  15  17
ATOM     17  C3  UNL     1       2.505  -0.954  -0.019  0.00  0.00    +0.000 C 
BRANCH  17  19
ATOM     18  C1  UNL     1       4.842  -1.856   0.227  0.00  0.00    +0.000 C 
ATOM     19  C2  UNL     1       3.857  -0.785   0.666  0.00  0.00    +0.000 C 
ENDBRANCH  17  19
ENDBRANCH  15  17
ENDBRANCH   1  15
TORSDOF 5
