REMARK  Name = Inv_1_Trans_Fluorovinil.pdb
REMARK  8 active torsions:
REMARK  status: ('A' for Active; 'I' for Inactive)
REMARK    1  A    between atoms: C1_1  and  C2_2
REMARK    2  A    between atoms: C2_2  and  C3_3
REMARK    3  A    between atoms: C3_3  and  C4_4
REMARK    4  A    between atoms: C4_4  and  C5_5
REMARK    5  A    between atoms: C5_5  and  C6_7
REMARK    6  A    between atoms: C7_8  and  C8_9
REMARK    7  A    between atoms: C11_12  and  C12_13
REMARK    8  A    between atoms: C16_18  and  C17_19
REMARK                            x       y       z     vdW  Elec       q    Type
REMARK                         _______ _______ _______ _____ _____    ______ ____
ROOT
ATOM      1  C6  UNL     1      -0.425   1.296   0.018  0.00  0.00    +0.000 C 
ATOM      2  C7  UNL     1      -0.419   2.813   0.297  0.00  0.00    +0.000 C 
ATOM      3  C8  UNL     1       0.942   3.488   0.379  0.00  0.00    +0.000 C 
ATOM      4  C9  UNL     1      -1.245   2.970   1.572  0.00  0.00    +0.000 C 
ATOM      5  C10 UNL     1      -2.374   1.971   1.359  0.00  0.00    +0.000 C 
ATOM      6  C11 UNL     1      -1.661   0.739   0.774  0.00  0.00    +0.000 C 
ENDROOT
BRANCH   6   7
ATOM      7  C12 UNL     1      -2.501  -0.171  -0.099  0.00  0.00    +0.000 C 
ATOM      8  C13 UNL     1      -3.339   0.351  -1.086  0.00  0.00    +0.000 C 
ATOM      9  N1  UNL     1      -4.083  -0.386  -1.941  0.00  0.00    +0.000 NA
ATOM     10  C14 UNL     1      -3.990  -1.724  -1.826  0.00  0.00    +0.000 C 
ATOM     11  C15 UNL     1      -3.182  -2.356  -0.899  0.00  0.00    +0.000 C 
ATOM     12  C16 UNL     1      -2.419  -1.575  -0.024  0.00  0.00    +0.000 C 
BRANCH  12  13
ATOM     13  C17 UNL     1      -1.562  -2.259   0.951  0.00  0.00    +0.000 C 
ATOM     14  C18 UNL     1      -0.504  -2.993   0.604  0.00  0.00    +0.000 C 
ATOM     15  F1  UNL     1      -0.128  -3.170  -0.676  0.00  0.00    +0.000 F 
ENDBRANCH  12  13
ENDBRANCH   6   7
BRANCH   1  16
ATOM     16  C5  UNL     1       0.834   0.568   0.487  0.00  0.00    +0.000 C 
ATOM     17  O1  UNL     1       1.134   0.502   1.680  0.00  0.00    +0.000 OA
BRANCH  16  18
ATOM     18  C4  UNL     1       1.694  -0.051  -0.603  0.00  0.00    +0.000 C 
BRANCH  18  19
ATOM     19  C3  UNL     1       2.877  -0.834  -0.040  0.00  0.00    +0.000 C 
BRANCH  19  21
ATOM     20  C1  UNL     1       4.880  -2.257  -0.599  0.00  0.00    +0.000 C 
ATOM     21  C2  UNL     1       3.701  -1.475  -1.155  0.00  0.00    +0.000 C 
ENDBRANCH  19  21
ENDBRANCH  18  19
ENDBRANCH  16  18
ENDBRANCH   1  16
TORSDOF 6
