REMARK  Name = Inv_2_Fluor_Central.pdb
REMARK  6 active torsions:
REMARK  status: ('A' for Active; 'I' for Inactive)
REMARK    1  A    between atoms: C1_1  and  C2_2
REMARK    2  A    between atoms: C2_2  and  C3_3
REMARK    3  A    between atoms: C2_2  and  C4_4
REMARK    4  A    between atoms: C4_4  and  C5_6
REMARK    5  A    between atoms: C9_11  and  C10_12
REMARK    6  A    between atoms: C14_17  and  C15_18
REMARK                            x       y       z     vdW  Elec       q    Type
REMARK                         _______ _______ _______ _____ _____    ______ ____
ROOT
ATOM      1  C5  UNL     1       1.145  -0.674  -0.031  0.00  0.00    +0.000 C 
ATOM      2  C6  UNL     1       1.829  -1.688   0.892  0.00  0.00    +0.000 C 
ATOM      3  F1  UNL     1       2.937  -2.175   0.272  0.00  0.00    +0.000 F 
ATOM      4  C7  UNL     1       0.842  -2.829   1.110  0.00  0.00    +0.000 C 
ATOM      5  C8  UNL     1      -0.516  -2.219   0.793  0.00  0.00    +0.000 C 
ATOM      6  C9  UNL     1      -0.203  -1.332  -0.415  0.00  0.00    +0.000 C 
ENDROOT
BRANCH   6   7
ATOM      7  C10 UNL     1      -1.230  -0.400  -1.022  0.00  0.00    +0.000 C 
ATOM      8  C11 UNL     1      -0.910   0.152  -2.271  0.00  0.00    +0.000 C 
ATOM      9  N1  UNL     1      -1.672   1.023  -2.968  0.00  0.00    +0.000 NA
ATOM     10  C12 UNL     1      -2.844   1.368  -2.412  0.00  0.00    +0.000 C 
ATOM     11  C13 UNL     1      -3.284   0.874  -1.199  0.00  0.00    +0.000 C 
ATOM     12  C14 UNL     1      -2.475  -0.027  -0.490  0.00  0.00    +0.000 C 
BRANCH  12  13
ATOM     13  C15 UNL     1      -3.023  -0.524   0.771  0.00  0.00    +0.000 C 
ATOM     14  C16 UNL     1      -3.013   0.208   1.886  0.00  0.00    +0.000 C 
ATOM     15  F2  UNL     1      -3.538  -0.263   3.032  0.00  0.00    +0.000 F 
ENDBRANCH  12  13
ENDBRANCH   6   7
BRANCH   1  16
ATOM     16  C4  UNL     1       1.014   0.640   0.734  0.00  0.00    +0.000 C 
ATOM     17  O1  UNL     1       0.209   0.763   1.660  0.00  0.00    +0.000 OA
BRANCH  16  19
ATOM     18  C1  UNL     1       3.411   1.397   0.497  0.00  0.00    +0.000 C 
ATOM     19  C2  UNL     1       1.945   1.797   0.377  0.00  0.00    +0.000 C 
ATOM     20  C3  UNL     1       1.622   2.366  -0.997  0.00  0.00    +0.000 C 
ENDBRANCH  16  19
ENDBRANCH   1  16
TORSDOF 4
