REMARK SMILES C=CCC(=O)C1C(C)CCC1c1cnccc1C1CO1
REMARK SMILES IDX 6 1 7 2 8 3 9 4 10 5 11 6 4 7 5 8 3 9 2 10 1 11 12 12 13 13
REMARK SMILES IDX 17 14 14 15 16 16 15 17 18 18 19 19 20 20
REMARK H PARENT
ROOT
ATOM      1  C   UNL     1       0.710  -0.108   0.630  1.00  0.00     0.067 C 
ATOM      2  C   UNL     1       1.018  -0.857   1.942  1.00  0.00    -0.003 C 
ATOM      3  C   UNL     1       2.474  -1.205   2.209  1.00  0.00     0.008 C 
ATOM      4  C   UNL     1       0.101  -2.076   1.906  1.00  0.00     0.005 C 
ATOM      5  C   UNL     1      -1.195  -1.500   1.355  1.00  0.00     0.009 C 
ATOM      6  C   UNL     1      -0.738  -0.529   0.251  1.00  0.00     0.032 C 
ENDROOT
BRANCH   1   7
ATOM      7  C   UNL     1       1.636  -0.452  -0.536  1.00  0.00     0.140 C 
ATOM      8  O   UNL     1       1.830  -1.619  -0.886  1.00  0.00    -0.299 OA
BRANCH   7   9
ATOM      9  C   UNL     1       2.275   0.709  -1.283  1.00  0.00     0.102 C 
BRANCH   9  10
ATOM     10  C   UNL     1       3.414   1.285  -0.497  1.00  0.00    -0.027 C 
ATOM     11  C   UNL     1       4.704   1.126  -0.821  1.00  0.00     0.004 C 
ENDBRANCH   9  10
ENDBRANCH   7   9
ENDBRANCH   1   7
BRANCH   6  12
ATOM     12  C   UNL     1      -1.679   0.642   0.050  1.00  0.00    -0.020 A 
ATOM     13  C   UNL     1      -1.888   1.563   1.083  1.00  0.00     0.115 A 
ATOM     14  C   UNL     1      -2.363   0.855  -1.167  1.00  0.00    -0.010 A 
ATOM     15  N   UNL     1      -2.680   2.651   0.999  1.00  0.00    -0.264 NA
ATOM     16  C   UNL     1      -3.187   1.989  -1.255  1.00  0.00     0.027 A 
ATOM     17  C   UNL     1      -3.315   2.840  -0.170  1.00  0.00     0.111 A 
BRANCH  14  18
ATOM     18  C   UNL     1      -2.231  -0.065  -2.360  1.00  0.00     0.174 C 
ATOM     19  C   UNL     1      -2.979  -1.379  -2.383  1.00  0.00     0.198 C 
ATOM     20  O   UNL     1      -3.396  -0.270  -3.182  1.00  0.00    -0.368 OA
ENDBRANCH  14  18
ENDBRANCH   6  12
TORSDOF 5
