REMARK SMILES C=C=Cc1ccncc1C1CCC(C)C1C(=O)CC=C
REMARK SMILES IDX 10 1 11 2 12 3 13 4 14 5 15 6 9 7 4 8 5 9 6 10 8 11 7 12
REMARK SMILES IDX 3 13 1 14 2 15 16 16 17 17 18 18 19 19 20 20
REMARK H PARENT
ROOT
ATOM      1  C   UNL     1       0.596  -0.309   0.822  1.00  0.00     0.032 C 
ATOM      2  C   UNL     1       0.795   1.213   0.653  1.00  0.00     0.009 C 
ATOM      3  C   UNL     1      -0.177   1.909   1.610  1.00  0.00     0.005 C 
ATOM      4  C   UNL     1      -0.975   0.796   2.286  1.00  0.00    -0.003 C 
ATOM      5  C   UNL     1      -2.384   1.215   2.676  1.00  0.00     0.008 C 
ATOM      6  C   UNL     1      -0.863  -0.405   1.337  1.00  0.00     0.067 C 
ENDROOT
BRANCH   1   7
ATOM      7  C   UNL     1       1.017  -1.226  -0.317  1.00  0.00    -0.018 A 
ATOM      8  C   UNL     1       2.133  -1.006  -1.150  1.00  0.00    -0.011 A 
ATOM      9  C   UNL     1       2.428  -1.911  -2.180  1.00  0.00     0.029 A 
ATOM     10  C   UNL     1       1.641  -3.034  -2.330  1.00  0.00     0.111 A 
ATOM     11  C   UNL     1       0.336  -2.429  -0.539  1.00  0.00     0.115 A 
ATOM     12  N   UNL     1       0.607  -3.318  -1.523  1.00  0.00    -0.264 NA
BRANCH   8  13
ATOM     13  C   UNL     1       3.076   0.105  -0.998  1.00  0.00     0.059 C 
ATOM     14  C   UNL     1       4.985   0.052   0.764  1.00  0.00     0.069 C 
ATOM     15  C   UNL     1       4.032   0.081  -0.117  1.00  0.00    -0.128 C 
ENDBRANCH   8  13
ENDBRANCH   1   7
BRANCH   6  16
ATOM     16  C   UNL     1      -1.986  -0.478   0.288  1.00  0.00     0.140 C 
ATOM     17  O   UNL     1      -2.890  -1.304   0.457  1.00  0.00    -0.299 OA
BRANCH  16  18
ATOM     18  C   UNL     1      -1.967   0.469  -0.913  1.00  0.00     0.102 C 
BRANCH  18  19
ATOM     19  C   UNL     1      -3.189   0.318  -1.776  1.00  0.00    -0.027 C 
ATOM     20  C   UNL     1      -4.037   1.311  -2.070  1.00  0.00     0.004 C 
ENDBRANCH  18  19
ENDBRANCH  16  18
ENDBRANCH   6  16
TORSDOF 5
