REMARK SMILES C=CCC(=O)C1C(C)CCC1c1cnccc1NC#N
REMARK SMILES IDX 6 1 7 2 8 3 9 4 10 5 11 6 4 7 5 8 3 9 2 10 1 11 12 12 13 13
REMARK SMILES IDX 17 14 14 15 16 16 15 17 18 18 19 19 20 20
REMARK H PARENT 18 21
ROOT
ATOM      1  C   UNL     1       0.791  -0.342   0.227  1.00  0.00     0.067 C 
ATOM      2  C   UNL     1       1.748  -1.176   1.096  1.00  0.00    -0.003 C 
ATOM      3  C   UNL     1       2.436  -0.368   2.187  1.00  0.00     0.008 C 
ATOM      4  C   UNL     1       0.842  -2.263   1.665  1.00  0.00     0.005 C 
ATOM      5  C   UNL     1      -0.012  -2.658   0.469  1.00  0.00     0.009 C 
ATOM      6  C   UNL     1      -0.248  -1.353  -0.321  1.00  0.00     0.034 C 
ENDROOT
BRANCH   1   7
ATOM      7  C   UNL     1       1.519   0.340  -0.925  1.00  0.00     0.140 C 
ATOM      8  O   UNL     1       2.262  -0.290  -1.682  1.00  0.00    -0.299 OA
BRANCH   7   9
ATOM      9  C   UNL     1       1.304   1.835  -1.095  1.00  0.00     0.102 C 
BRANCH   9  10
ATOM     10  C   UNL     1       2.285   2.584  -0.247  1.00  0.00    -0.027 C 
ATOM     11  C   UNL     1       1.944   3.385   0.771  1.00  0.00     0.004 C 
ENDBRANCH   9  10
ENDBRANCH   7   9
ENDBRANCH   1   7
BRANCH   6  12
ATOM     12  C   UNL     1      -1.655  -0.785  -0.244  1.00  0.00    -0.002 A 
ATOM     13  C   UNL     1      -2.415  -0.870   0.922  1.00  0.00     0.117 A 
ATOM     14  C   UNL     1      -2.239  -0.087  -1.315  1.00  0.00     0.054 A 
ATOM     15  N   UNL     1      -3.665  -0.377   1.065  1.00  0.00    -0.264 NA
ATOM     16  C   UNL     1      -3.546   0.395  -1.206  1.00  0.00     0.047 A 
ATOM     17  C   UNL     1      -4.206   0.236  -0.003  1.00  0.00     0.113 A 
BRANCH  14  18
ATOM     18  N   UNL     1      -1.526  -0.003  -2.562  1.00  0.00    -0.292 N 
ATOM     19  C   UNL     1      -1.648   1.149  -3.232  1.00  0.00     0.181 C 
ATOM     20  N   UNL     1      -1.760   2.143  -3.814  1.00  0.00    -0.173 NA
ATOM     21  H   UNL     1      -1.479  -0.890  -3.076  1.00  0.00     0.179 HD
ENDBRANCH  14  18
ENDBRANCH   6  12
TORSDOF 5
