REMARK SMILES C=CCC(=O)C1C(C)CCC1c1cnccc1C(F)F
REMARK SMILES IDX 6 1 7 2 8 3 9 4 10 5 11 6 4 7 5 8 3 9 2 10 1 11 12 12 13 13
REMARK SMILES IDX 17 14 14 15 16 16 15 17 18 18 19 19 20 20
REMARK H PARENT
ROOT
ATOM      1  C   UNL     1       0.821  -0.413   0.145  1.00  0.00     0.067 C 
ATOM      2  C   UNL     1       1.615  -1.654   0.593  1.00  0.00    -0.003 C 
ATOM      3  C   UNL     1       2.602  -1.367   1.714  1.00  0.00     0.008 C 
ATOM      4  C   UNL     1       0.524  -2.631   1.018  1.00  0.00     0.005 C 
ATOM      5  C   UNL     1      -0.534  -2.466  -0.063  1.00  0.00     0.009 C 
ATOM      6  C   UNL     1      -0.479  -0.980  -0.481  1.00  0.00     0.032 C 
ENDROOT
BRANCH   1   7
ATOM      7  C   UNL     1       1.576   0.431  -0.880  1.00  0.00     0.140 C 
ATOM      8  O   UNL     1       2.385  -0.069  -1.663  1.00  0.00    -0.299 OA
BRANCH   7   9
ATOM      9  C   UNL     1       1.283   1.928  -0.889  1.00  0.00     0.102 C 
BRANCH   9  10
ATOM     10  C   UNL     1       2.123   2.739   0.055  1.00  0.00    -0.027 C 
ATOM     11  C   UNL     1       3.338   2.422   0.523  1.00  0.00     0.004 C 
ENDBRANCH   9  10
ENDBRANCH   7   9
ENDBRANCH   1   7
BRANCH   6  12
ATOM     12  C   UNL     1      -1.723  -0.208  -0.071  1.00  0.00    -0.017 A 
ATOM     13  C   UNL     1      -2.114  -0.158   1.271  1.00  0.00     0.115 A 
ATOM     14  C   UNL     1      -2.534   0.487  -0.994  1.00  0.00     0.024 A 
ATOM     15  N   UNL     1      -3.196   0.501   1.738  1.00  0.00    -0.264 NA
ATOM     16  C   UNL     1      -3.664   1.172  -0.519  1.00  0.00     0.030 A 
ATOM     17  C   UNL     1      -3.948   1.152   0.834  1.00  0.00     0.111 A 
BRANCH  14  18
ATOM     18  C   UNL     1      -2.238   0.524  -2.474  1.00  0.00     0.373 C 
ATOM     19  F   UNL     1      -0.996   1.017  -2.737  1.00  0.00    -0.205 F 
ATOM     20  F   UNL     1      -3.097   1.314  -3.180  1.00  0.00    -0.205 F 
ENDBRANCH  14  18
ENDBRANCH   6  12
TORSDOF 5
