REMARK SMILES CC(=O)C1C(C)CCC1c1cnccc1F
REMARK SMILES IDX 4 1 5 2 6 3 7 4 8 5 9 6 2 7 3 8 1 9 10 10 11 11 15 12 12 13
REMARK SMILES IDX 14 14 13 15 16 16
REMARK H PARENT
ROOT
ATOM      1  C   UNL     1      -0.953   0.158   0.303  1.00  0.00     0.066 C 
ATOM      2  C   UNL     1      -2.053  -0.918   0.135  1.00  0.00    -0.003 C 
ATOM      3  C   UNL     1      -3.200  -0.738   1.122  1.00  0.00     0.008 C 
ATOM      4  C   UNL     1      -1.347  -2.268   0.314  1.00  0.00     0.005 C 
ATOM      5  C   UNL     1       0.112  -1.981  -0.010  1.00  0.00     0.009 C 
ATOM      6  C   UNL     1       0.339  -0.619   0.654  1.00  0.00     0.034 C 
ENDROOT
BRANCH   1   7
ATOM      7  C   UNL     1      -0.847   0.967  -0.991  1.00  0.00     0.133 C 
ATOM      8  O   UNL     1      -0.417   0.483  -2.038  1.00  0.00    -0.300 OA
ATOM      9  C   UNL     1      -1.343   2.388  -0.941  1.00  0.00     0.088 C 
ENDBRANCH   1   7
BRANCH   6  10
ATOM     10  C   UNL     1       1.634   0.111   0.414  1.00  0.00     0.010 A 
ATOM     11  C   UNL     1       1.870   1.327   1.051  1.00  0.00     0.118 A 
ATOM     12  C   UNL     1       2.669  -0.350  -0.397  1.00  0.00     0.129 A 
ATOM     13  N   UNL     1       2.988   2.074   0.905  1.00  0.00    -0.264 NA
ATOM     14  C   UNL     1       3.834   0.384  -0.575  1.00  0.00     0.059 A 
ATOM     15  C   UNL     1       3.944   1.587   0.089  1.00  0.00     0.114 A 
ATOM     16  F   UNL     1       2.579  -1.531  -1.024  1.00  0.00    -0.207 F 
ENDBRANCH   6  10
TORSDOF 2
