REMARK SMILES O=C(C1CCCC1c1cnccc1Cl)C(F)(F)F
REMARK SMILES IDX 3 1 4 2 5 3 6 4 7 5 2 6 1 7 15 8 16 9 17 10 18 11 8 12 9 13
REMARK SMILES IDX 13 14 10 15 12 16 11 17 14 18
REMARK H PARENT
ROOT
ATOM      1  C   UNL     1      -1.272  -0.217  -0.677  1.00  0.00     0.073 C 
ATOM      2  C   UNL     1      -1.775   0.958   0.160  1.00  0.00     0.012 C 
ATOM      3  C   UNL     1      -1.205   2.207  -0.505  1.00  0.00     0.001 C 
ATOM      4  C   UNL     1      -0.105   1.738  -1.458  1.00  0.00     0.009 C 
ATOM      5  C   UNL     1       0.116   0.238  -1.184  1.00  0.00     0.033 C 
ENDROOT
BRANCH   1   6
ATOM      6  C   UNL     1      -1.335  -1.577   0.017  1.00  0.00     0.239 C 
ATOM      7  O   UNL     1      -0.456  -2.425  -0.157  1.00  0.00    -0.289 OA
BRANCH   6   8
ATOM      8  C   UNL     1      -2.581  -1.854   0.849  1.00  0.00     0.450 C 
ATOM      9  F   UNL     1      -2.731  -3.163   1.183  1.00  0.00    -0.163 F 
ATOM     10  F   UNL     1      -3.718  -1.494   0.189  1.00  0.00    -0.163 F 
ATOM     11  F   UNL     1      -2.584  -1.155   2.018  1.00  0.00    -0.163 F 
ENDBRANCH   6   8
ENDBRANCH   1   6
BRANCH   5  12
ATOM     12  C   UNL     1       1.315  -0.023  -0.286  1.00  0.00    -0.007 A 
ATOM     13  C   UNL     1       1.488   0.636   0.930  1.00  0.00     0.116 A 
ATOM     14  C   UNL     1       2.328  -0.940  -0.616  1.00  0.00     0.047 A 
ATOM     15  N   UNL     1       2.516   0.439   1.787  1.00  0.00    -0.264 NA
ATOM     16  C   UNL     1       3.400  -1.169   0.246  1.00  0.00     0.041 A 
ATOM     17  C   UNL     1       3.447  -0.464   1.429  1.00  0.00     0.112 A 
ATOM     18  Cl  UNL     1       2.334  -1.830  -2.101  1.00  0.00    -0.084 Cl
ENDBRANCH   5  12
TORSDOF 3
