MODEL 1
REMARK VINA RESULT:    -6.837      0.000      0.000
REMARK INTER + INTRA:         -10.179
REMARK INTER:                  -9.235
REMARK INTRA:                  -0.944
REMARK UNBOUND:                -0.944
REMARK  Name = 5GP
REMARK  8 active torsions:
REMARK  status: ('A' for Active; 'I' for Inactive)
REMARK    1  A    between atoms: P_1  and  O_3
REMARK    2  A    between atoms: P_1  and  O_4
REMARK    3  A    between atoms: P_1  and  O_5
REMARK    4  A    between atoms: O_5  and  C_6
REMARK    5  A    between atoms: C_6  and  C_7
REMARK    6  A    between atoms: C_9  and  O_10
REMARK    7  A    between atoms: C_11  and  O_12
REMARK    8  A    between atoms: C_13  and  N_14
REMARK                            x       y       z     vdW  Elec       q    Type
REMARK                         _______ _______ _______ _____ _____    ______ ____
ROOT
ATOM      1  C   UNL     1      24.517  -3.734  52.855  0.00  0.00    +0.178 C 
ATOM      2  O   UNL     1      24.092  -3.293  51.579  0.00  0.00    -0.346 OA
ATOM      3  C   UNL     1      26.017  -3.451  53.012  0.00  0.00    +0.178 C 
ATOM      4  C   UNL     1      26.240  -2.333  52.020  0.00  0.00    +0.195 C 
ATOM      5  C   UNL     1      25.155  -2.585  50.974  0.00  0.00    +0.253 C 
ENDROOT
BRANCH   5   6
ATOM      6  N   UNL     1      24.669  -1.320  50.421  0.00  0.00    -0.285 N 
ATOM      7  C   UNL     1      23.606  -0.577  50.831  0.00  0.00    +0.203 A 
ATOM      8  N   UNL     1      23.489   0.608  50.167  0.00  0.00    -0.229 NA
ATOM      9  C   UNL     1      24.539   0.580  49.325  0.00  0.00    +0.172 A 
ATOM     10  C   UNL     1      24.960   1.533  48.409  0.00  0.00    +0.280 A 
ATOM     11  O   UNL     1      24.322   2.608  48.247  0.00  0.00    -0.265 OA
ATOM     12  N   UNL     1      26.093   1.272  47.687  0.00  0.00    -0.293 N 
ATOM     13  C   UNL     1      26.798   0.104  47.868  0.00  0.00    +0.195 A 
ATOM     14  N   UNL     1      27.981  -0.146  47.110  0.00  0.00    -0.329 N 
ATOM     15  N   UNL     1      26.372  -0.826  48.779  0.00  0.00    -0.196 NA
ATOM     16  C   UNL     1      25.244  -0.561  49.481  0.00  0.00    +0.171 A 
ATOM     17  H   UNL     1      26.429   1.975  46.991  0.00  0.00    +0.172 HD
ATOM     18  H   UNL     1      28.518  -1.030  47.246  0.00  0.00    +0.145 HD
ATOM     19  H   UNL     1      28.323   0.551  46.411  0.00  0.00    +0.145 HD
ENDBRANCH   5   6
BRANCH   3  20
ATOM     20  O   UNL     1      26.789  -4.593  52.716  0.00  0.00    -0.386 OA
ATOM     21  H   UNL     1      26.232  -5.218  52.183  0.00  0.00    +0.210 HD
ENDBRANCH   3  20
BRANCH   4  22
ATOM     22  O   UNL     1      27.545  -2.302  51.488  0.00  0.00    -0.385 OA
ATOM     23  H   UNL     1      27.645  -3.049  50.843  0.00  0.00    +0.210 HD
ENDBRANCH   4  22
BRANCH   1  24
ATOM     24  C   UNL     1      23.691  -3.024  53.936  0.00  0.00    +0.206 C 
BRANCH  24  25
ATOM     25  O   UNL     1      24.445  -2.957  55.123  0.00  0.00    -0.284 OA
BRANCH  25  26
ATOM     26  P   UNL     1      24.383  -1.358  55.716  0.00  0.00    +0.472 P 
ATOM     27  O   UNL     1      24.597  -1.355  57.214  0.00  0.00    -0.228 OA
BRANCH  26  28
ATOM     28  O   UNL     1      22.893  -0.643  55.345  0.00  0.00    -0.303 OA
ATOM     29  H   UNL     1      22.268  -0.971  56.041  0.00  0.00    +0.222 HD
ENDBRANCH  26  28
BRANCH  26  30
ATOM     30  O   UNL     1      25.613  -0.458  54.983  0.00  0.00    -0.303 OA
ATOM     31  H   UNL     1      26.068   0.006  55.731  0.00  0.00    +0.222 HD
ENDBRANCH  26  30
ENDBRANCH  25  26
ENDBRANCH  24  25
ENDBRANCH   1  24
TORSDOF 8
ENDMDL
MODEL 2
REMARK VINA RESULT:    -6.749      2.293      3.437
REMARK INTER + INTRA:         -10.060
REMARK INTER:                  -9.108
REMARK INTRA:                  -0.952
REMARK UNBOUND:                -0.944
REMARK  Name = 5GP
REMARK  8 active torsions:
REMARK  status: ('A' for Active; 'I' for Inactive)
REMARK    1  A    between atoms: P_1  and  O_3
REMARK    2  A    between atoms: P_1  and  O_4
REMARK    3  A    between atoms: P_1  and  O_5
REMARK    4  A    between atoms: O_5  and  C_6
REMARK    5  A    between atoms: C_6  and  C_7
REMARK    6  A    between atoms: C_9  and  O_10
REMARK    7  A    between atoms: C_11  and  O_12
REMARK    8  A    between atoms: C_13  and  N_14
REMARK                            x       y       z     vdW  Elec       q    Type
REMARK                         _______ _______ _______ _____ _____    ______ ____
ROOT
ATOM      1  C   UNL     1      21.956  -3.489  54.464  0.00  0.00    +0.178 C 
ATOM      2  O   UNL     1      21.303  -2.854  53.381  0.00  0.00    -0.346 OA
ATOM      3  C   UNL     1      22.668  -4.750  53.954  0.00  0.00    +0.178 C 
ATOM      4  C   UNL     1      22.852  -4.445  52.486  0.00  0.00    +0.195 C 
ATOM      5  C   UNL     1      21.687  -3.503  52.185  0.00  0.00    +0.253 C 
ENDROOT
BRANCH   5   6
ATOM      6  N   UNL     1      22.071  -2.515  51.176  0.00  0.00    -0.285 N 
ATOM      7  C   UNL     1      21.318  -2.015  50.159  0.00  0.00    +0.203 A 
ATOM      8  N   UNL     1      21.943  -1.026  49.461  0.00  0.00    -0.229 NA
ATOM      9  C   UNL     1      23.125  -0.918  50.096  0.00  0.00    +0.172 A 
ATOM     10  C   UNL     1      24.180  -0.050  49.853  0.00  0.00    +0.280 A 
ATOM     11  O   UNL     1      24.135   0.782  48.907  0.00  0.00    -0.265 OA
ATOM     12  N   UNL     1      25.272  -0.123  50.674  0.00  0.00    -0.293 N 
ATOM     13  C   UNL     1      25.320  -1.022  51.714  0.00  0.00    +0.195 A 
ATOM     14  N   UNL     1      26.466  -1.077  52.564  0.00  0.00    -0.329 N 
ATOM     15  N   UNL     1      24.270  -1.870  51.944  0.00  0.00    -0.196 NA
ATOM     16  C   UNL     1      23.198  -1.796  51.119  0.00  0.00    +0.171 A 
ATOM     17  H   UNL     1      26.079   0.521  50.510  0.00  0.00    +0.172 HD
ATOM     18  H   UNL     1      26.505  -1.757  53.354  0.00  0.00    +0.145 HD
ATOM     19  H   UNL     1      27.277  -0.439  52.406  0.00  0.00    +0.145 HD
ENDBRANCH   5   6
BRANCH   3  20
ATOM     20  O   UNL     1      21.886  -5.904  54.168  0.00  0.00    -0.386 OA
ATOM     21  H   UNL     1      22.318  -6.448  54.877  0.00  0.00    +0.210 HD
ENDBRANCH   3  20
BRANCH   4  22
ATOM     22  O   UNL     1      22.878  -5.593  51.670  0.00  0.00    -0.385 OA
ATOM     23  H   UNL     1      22.933  -6.397  52.249  0.00  0.00    +0.210 HD
ENDBRANCH   4  22
BRANCH   1  24
ATOM     24  C   UNL     1      22.940  -2.504  55.107  0.00  0.00    +0.206 C 
BRANCH  24  25
ATOM     25  O   UNL     1      24.182  -3.144  55.286  0.00  0.00    -0.284 OA
BRANCH  25  26
ATOM     26  P   UNL     1      25.312  -1.992  55.842  0.00  0.00    +0.472 P 
ATOM     27  O   UNL     1      24.959  -0.621  55.305  0.00  0.00    -0.228 OA
BRANCH  26  28
ATOM     28  O   UNL     1      26.879  -2.414  55.357  0.00  0.00    -0.303 OA
ATOM     29  H   UNL     1      27.021  -3.330  55.707  0.00  0.00    +0.222 HD
ENDBRANCH  26  28
BRANCH  26  30
ATOM     30  O   UNL     1      25.260  -1.949  57.532  0.00  0.00    -0.303 OA
ATOM     31  H   UNL     1      24.303  -2.066  57.759  0.00  0.00    +0.222 HD
ENDBRANCH  26  30
ENDBRANCH  25  26
ENDBRANCH  24  25
ENDBRANCH   1  24
TORSDOF 8
ENDMDL
MODEL 3
REMARK VINA RESULT:    -6.651     10.208     12.908
REMARK INTER + INTRA:          -9.928
REMARK INTER:                  -9.053
REMARK INTRA:                  -0.875
REMARK UNBOUND:                -0.944
REMARK  Name = 5GP
REMARK  8 active torsions:
REMARK  status: ('A' for Active; 'I' for Inactive)
REMARK    1  A    between atoms: P_1  and  O_3
REMARK    2  A    between atoms: P_1  and  O_4
REMARK    3  A    between atoms: P_1  and  O_5
REMARK    4  A    between atoms: O_5  and  C_6
REMARK    5  A    between atoms: C_6  and  C_7
REMARK    6  A    between atoms: C_9  and  O_10
REMARK    7  A    between atoms: C_11  and  O_12
REMARK    8  A    between atoms: C_13  and  N_14
REMARK                            x       y       z     vdW  Elec       q    Type
REMARK                         _______ _______ _______ _____ _____    ______ ____
ROOT
ATOM      1  C   UNL     1      36.737  -3.616  45.455  0.00  0.00    +0.178 C 
ATOM      2  O   UNL     1      35.470  -3.199  45.928  0.00  0.00    -0.346 OA
ATOM      3  C   UNL     1      37.579  -4.114  46.639  0.00  0.00    +0.178 C 
ATOM      4  C   UNL     1      36.522  -4.485  47.652  0.00  0.00    +0.195 C 
ATOM      5  C   UNL     1      35.362  -3.557  47.292  0.00  0.00    +0.253 C 
ENDROOT
BRANCH   5   6
ATOM      6  N   UNL     1      34.079  -4.214  47.541  0.00  0.00    -0.285 N 
ATOM      7  C   UNL     1      33.208  -4.729  46.632  0.00  0.00    +0.203 A 
ATOM      8  N   UNL     1      32.150  -5.372  47.203  0.00  0.00    -0.229 NA
ATOM      9  C   UNL     1      32.404  -5.246  48.519  0.00  0.00    +0.172 A 
ATOM     10  C   UNL     1      31.686  -5.728  49.604  0.00  0.00    +0.280 A 
ATOM     11  O   UNL     1      30.614  -6.369  49.444  0.00  0.00    -0.265 OA
ATOM     12  N   UNL     1      32.182  -5.488  50.857  0.00  0.00    -0.293 N 
ATOM     13  C   UNL     1      33.359  -4.798  51.036  0.00  0.00    +0.195 A 
ATOM     14  N   UNL     1      33.861  -4.564  52.351  0.00  0.00    -0.329 N 
ATOM     15  N   UNL     1      34.057  -4.332  49.955  0.00  0.00    -0.196 NA
ATOM     16  C   UNL     1      33.552  -4.566  48.720  0.00  0.00    +0.171 A 
ATOM     17  H   UNL     1      31.658  -5.841  51.690  0.00  0.00    +0.172 HD
ATOM     18  H   UNL     1      34.754  -4.042  52.490  0.00  0.00    +0.145 HD
ATOM     19  H   UNL     1      33.344  -4.912  53.189  0.00  0.00    +0.145 HD
ENDBRANCH   5   6
BRANCH   3  20
ATOM     20  O   UNL     1      38.445  -3.107  47.113  0.00  0.00    -0.386 OA
ATOM     21  H   UNL     1      39.036  -3.502  47.806  0.00  0.00    +0.210 HD
ENDBRANCH   3  20
BRANCH   4  22
ATOM     22  O   UNL     1      36.952  -4.362  48.989  0.00  0.00    -0.385 OA
ATOM     23  H   UNL     1      37.738  -4.952  49.127  0.00  0.00    +0.210 HD
ENDBRANCH   4  22
BRANCH   1  24
ATOM     24  C   UNL     1      36.546  -4.710  44.397  0.00  0.00    +0.206 C 
BRANCH  24  25
ATOM     25  O   UNL     1      35.325  -4.498  43.729  0.00  0.00    -0.284 OA
BRANCH  25  26
ATOM     26  P   UNL     1      35.659  -3.935  42.153  0.00  0.00    +0.472 P 
ATOM     27  O   UNL     1      34.892  -2.657  41.888  0.00  0.00    -0.228 OA
BRANCH  26  28
ATOM     28  O   UNL     1      35.241  -5.106  41.002  0.00  0.00    -0.303 OA
ATOM     29  H   UNL     1      35.953  -5.060  40.315  0.00  0.00    +0.222 HD
ENDBRANCH  26  28
BRANCH  26  30
ATOM     30  O   UNL     1      37.315  -3.619  42.027  0.00  0.00    -0.303 OA
ATOM     31  H   UNL     1      37.516  -3.013  42.785  0.00  0.00    +0.222 HD
ENDBRANCH  26  30
ENDBRANCH  25  26
ENDBRANCH  24  25
ENDBRANCH   1  24
TORSDOF 8
ENDMDL
MODEL 4
REMARK VINA RESULT:    -6.611      3.379      6.692
REMARK INTER + INTRA:          -9.873
REMARK INTER:                  -9.012
REMARK INTRA:                  -0.861
REMARK UNBOUND:                -0.944
REMARK  Name = 5GP
REMARK  8 active torsions:
REMARK  status: ('A' for Active; 'I' for Inactive)
REMARK    1  A    between atoms: P_1  and  O_3
REMARK    2  A    between atoms: P_1  and  O_4
REMARK    3  A    between atoms: P_1  and  O_5
REMARK    4  A    between atoms: O_5  and  C_6
REMARK    5  A    between atoms: C_6  and  C_7
REMARK    6  A    between atoms: C_9  and  O_10
REMARK    7  A    between atoms: C_11  and  O_12
REMARK    8  A    between atoms: C_13  and  N_14
REMARK                            x       y       z     vdW  Elec       q    Type
REMARK                         _______ _______ _______ _____ _____    ______ ____
ROOT
ATOM      1  C   UNL     1      26.213  -0.770  49.246  0.00  0.00    +0.178 C 
ATOM      2  O   UNL     1      26.175  -1.764  50.252  0.00  0.00    -0.346 OA
ATOM      3  C   UNL     1      24.870  -0.025  49.222  0.00  0.00    +0.178 C 
ATOM      4  C   UNL     1      24.344  -0.267  50.618  0.00  0.00    +0.195 C 
ATOM      5  C   UNL     1      24.986  -1.600  50.999  0.00  0.00    +0.253 C 
ENDROOT
BRANCH   5   6
ATOM      6  N   UNL     1      25.281  -1.639  52.432  0.00  0.00    -0.285 N 
ATOM      7  C   UNL     1      26.436  -1.293  53.062  0.00  0.00    +0.203 A 
ATOM      8  N   UNL     1      26.345  -1.345  54.421  0.00  0.00    -0.229 NA
ATOM      9  C   UNL     1      25.069  -1.731  54.617  0.00  0.00    +0.172 A 
ATOM     10  C   UNL     1      24.382  -1.930  55.805  0.00  0.00    +0.280 A 
ATOM     11  O   UNL     1      24.949  -1.776  56.920  0.00  0.00    -0.265 OA
ATOM     12  N   UNL     1      23.065  -2.294  55.730  0.00  0.00    -0.293 N 
ATOM     13  C   UNL     1      22.439  -2.452  54.515  0.00  0.00    +0.195 A 
ATOM     14  N   UNL     1      21.063  -2.827  54.459  0.00  0.00    -0.329 N 
ATOM     15  N   UNL     1      23.131  -2.249  53.350  0.00  0.00    -0.196 NA
ATOM     16  C   UNL     1      24.436  -1.898  53.436  0.00  0.00    +0.171 A 
ATOM     17  H   UNL     1      22.526  -2.450  56.612  0.00  0.00    +0.172 HD
ATOM     18  H   UNL     1      20.586  -2.946  53.538  0.00  0.00    +0.145 HD
ATOM     19  H   UNL     1      20.518  -2.985  55.335  0.00  0.00    +0.145 HD
ENDBRANCH   5   6
BRANCH   3  20
ATOM     20  O   UNL     1      24.013  -0.542  48.229  0.00  0.00    -0.386 OA
ATOM     21  H   UNL     1      23.508  -1.304  48.616  0.00  0.00    +0.210 HD
ENDBRANCH   3  20
BRANCH   4  22
ATOM     22  O   UNL     1      22.937  -0.272  50.697  0.00  0.00    -0.385 OA
ATOM     23  H   UNL     1      22.573  -0.743  49.904  0.00  0.00    +0.210 HD
ENDBRANCH   4  22
BRANCH   1  24
ATOM     24  C   UNL     1      27.384   0.182  49.520  0.00  0.00    +0.206 C 
BRANCH  24  25
ATOM     25  O   UNL     1      28.304  -0.453  50.376  0.00  0.00    -0.284 OA
BRANCH  25  26
ATOM     26  P   UNL     1      29.840   0.253  50.143  0.00  0.00    +0.472 P 
ATOM     27  O   UNL     1      30.146   1.208  51.277  0.00  0.00    -0.228 OA
BRANCH  26  28
ATOM     28  O   UNL     1      29.897   1.078  48.664  0.00  0.00    -0.303 OA
ATOM     29  H   UNL     1      30.817   1.441  48.606  0.00  0.00    +0.222 HD
ENDBRANCH  26  28
BRANCH  26  30
ATOM     30  O   UNL     1      31.006  -0.972  50.126  0.00  0.00    -0.303 OA
ATOM     31  H   UNL     1      31.708  -0.661  50.751  0.00  0.00    +0.222 HD
ENDBRANCH  26  30
ENDBRANCH  25  26
ENDBRANCH  24  25
ENDBRANCH   1  24
TORSDOF 8
ENDMDL
MODEL 5
REMARK VINA RESULT:    -6.553      8.776     10.708
REMARK INTER + INTRA:          -9.795
REMARK INTER:                  -9.055
REMARK INTRA:                  -0.740
REMARK UNBOUND:                -0.944
REMARK  Name = 5GP
REMARK  8 active torsions:
REMARK  status: ('A' for Active; 'I' for Inactive)
REMARK    1  A    between atoms: P_1  and  O_3
REMARK    2  A    between atoms: P_1  and  O_4
REMARK    3  A    between atoms: P_1  and  O_5
REMARK    4  A    between atoms: O_5  and  C_6
REMARK    5  A    between atoms: C_6  and  C_7
REMARK    6  A    between atoms: C_9  and  O_10
REMARK    7  A    between atoms: C_11  and  O_12
REMARK    8  A    between atoms: C_13  and  N_14
REMARK                            x       y       z     vdW  Elec       q    Type
REMARK                         _______ _______ _______ _____ _____    ______ ____
ROOT
ATOM      1  C   UNL     1      32.699  -5.037  49.912  0.00  0.00    +0.178 C 
ATOM      2  O   UNL     1      33.468  -5.498  48.817  0.00  0.00    -0.346 OA
ATOM      3  C   UNL     1      33.557  -4.097  50.771  0.00  0.00    +0.178 C 
ATOM      4  C   UNL     1      34.603  -3.627  49.788  0.00  0.00    +0.195 C 
ATOM      5  C   UNL     1      34.692  -4.791  48.802  0.00  0.00    +0.253 C 
ENDROOT
BRANCH   5   6
ATOM      6  N   UNL     1      34.975  -4.302  47.452  0.00  0.00    -0.285 N 
ATOM      7  C   UNL     1      34.475  -3.198  46.835  0.00  0.00    +0.203 A 
ATOM      8  N   UNL     1      35.028  -2.967  45.611  0.00  0.00    -0.229 NA
ATOM      9  C   UNL     1      35.912  -3.977  45.491  0.00  0.00    +0.172 A 
ATOM     10  C   UNL     1      36.796  -4.255  44.459  0.00  0.00    +0.280 A 
ATOM     11  O   UNL     1      36.843  -3.532  43.428  0.00  0.00    -0.265 OA
ATOM     12  N   UNL     1      37.622  -5.337  44.597  0.00  0.00    -0.293 N 
ATOM     13  C   UNL     1      37.582  -6.122  45.727  0.00  0.00    +0.195 A 
ATOM     14  N   UNL     1      38.456  -7.243  45.854  0.00  0.00    -0.329 N 
ATOM     15  N   UNL     1      36.705  -5.833  46.738  0.00  0.00    -0.196 NA
ATOM     16  C   UNL     1      35.886  -4.764  46.587  0.00  0.00    +0.171 A 
ATOM     17  H   UNL     1      38.297  -5.567  43.833  0.00  0.00    +0.172 HD
ATOM     18  H   UNL     1      38.428  -7.839  46.710  0.00  0.00    +0.145 HD
ATOM     19  H   UNL     1      39.132  -7.480  45.095  0.00  0.00    +0.145 HD
ENDBRANCH   5   6
BRANCH   3  20
ATOM     20  O   UNL     1      34.121  -4.778  51.869  0.00  0.00    -0.386 OA
ATOM     21  H   UNL     1      34.522  -4.108  52.482  0.00  0.00    +0.210 HD
ENDBRANCH   3  20
BRANCH   4  22
ATOM     22  O   UNL     1      35.834  -3.297  50.388  0.00  0.00    -0.385 OA
ATOM     23  H   UNL     1      36.236  -4.120  50.770  0.00  0.00    +0.210 HD
ENDBRANCH   4  22
BRANCH   1  24
ATOM     24  C   UNL     1      31.443  -4.331  49.384  0.00  0.00    +0.206 C 
BRANCH  24  25
ATOM     25  O   UNL     1      30.710  -3.819  50.472  0.00  0.00    -0.284 OA
BRANCH  25  26
ATOM     26  P   UNL     1      30.179  -2.247  50.077  0.00  0.00    +0.472 P 
ATOM     27  O   UNL     1      31.365  -1.313  49.969  0.00  0.00    -0.228 OA
BRANCH  26  28
ATOM     28  O   UNL     1      29.099  -1.671  51.249  0.00  0.00    -0.303 OA
ATOM     29  H   UNL     1      28.553  -2.457  51.506  0.00  0.00    +0.222 HD
ENDBRANCH  26  28
BRANCH  26  30
ATOM     30  O   UNL     1      29.383  -2.299  48.586  0.00  0.00    -0.303 OA
ATOM     31  H   UNL     1      30.103  -2.433  47.919  0.00  0.00    +0.222 HD
ENDBRANCH  26  30
ENDBRANCH  25  26
ENDBRANCH  24  25
ENDBRANCH   1  24
TORSDOF 8
ENDMDL
MODEL 6
REMARK VINA RESULT:    -6.547      6.455      8.506
REMARK INTER + INTRA:          -9.787
REMARK INTER:                  -9.145
REMARK INTRA:                  -0.642
REMARK UNBOUND:                -0.944
REMARK  Name = 5GP
REMARK  8 active torsions:
REMARK  status: ('A' for Active; 'I' for Inactive)
REMARK    1  A    between atoms: P_1  and  O_3
REMARK    2  A    between atoms: P_1  and  O_4
REMARK    3  A    between atoms: P_1  and  O_5
REMARK    4  A    between atoms: O_5  and  C_6
REMARK    5  A    between atoms: C_6  and  C_7
REMARK    6  A    between atoms: C_9  and  O_10
REMARK    7  A    between atoms: C_11  and  O_12
REMARK    8  A    between atoms: C_13  and  N_14
REMARK                            x       y       z     vdW  Elec       q    Type
REMARK                         _______ _______ _______ _____ _____    ______ ____
ROOT
ATOM      1  C   UNL     1      33.154  -3.701  49.728  0.00  0.00    +0.178 C 
ATOM      2  O   UNL     1      32.384  -2.531  49.929  0.00  0.00    -0.346 OA
ATOM      3  C   UNL     1      32.399  -4.907  50.305  0.00  0.00    +0.178 C 
ATOM      4  C   UNL     1      30.967  -4.426  50.295  0.00  0.00    +0.195 C 
ATOM      5  C   UNL     1      31.115  -2.911  50.425  0.00  0.00    +0.253 C 
ENDROOT
BRANCH   5   6
ATOM      6  N   UNL     1      30.058  -2.223  49.684  0.00  0.00    -0.285 N 
ATOM      7  C   UNL     1      29.116  -2.764  48.865  0.00  0.00    +0.203 A 
ATOM      8  N   UNL     1      28.208  -1.855  48.413  0.00  0.00    -0.229 NA
ATOM      9  C   UNL     1      28.617  -0.713  48.997  0.00  0.00    +0.172 A 
ATOM     10  C   UNL     1      28.063   0.557  48.933  0.00  0.00    +0.280 A 
ATOM     11  O   UNL     1      27.040   0.788  48.234  0.00  0.00    -0.265 OA
ATOM     12  N   UNL     1      28.660   1.554  49.656  0.00  0.00    -0.293 N 
ATOM     13  C   UNL     1      29.770   1.304  50.429  0.00  0.00    +0.195 A 
ATOM     14  N   UNL     1      30.373   2.357  51.181  0.00  0.00    -0.329 N 
ATOM     15  N   UNL     1      30.303   0.044  50.485  0.00  0.00    -0.196 NA
ATOM     16  C   UNL     1      29.710  -0.933  49.758  0.00  0.00    +0.171 A 
ATOM     17  H   UNL     1      28.260   2.519  49.622  0.00  0.00    +0.172 HD
ATOM     18  H   UNL     1      31.214   2.169  51.769  0.00  0.00    +0.145 HD
ATOM     19  H   UNL     1      29.982   3.324  51.152  0.00  0.00    +0.145 HD
ENDBRANCH   5   6
BRANCH   3  20
ATOM     20  O   UNL     1      32.849  -5.222  51.604  0.00  0.00    -0.386 OA
ATOM     21  H   UNL     1      33.455  -6.007  51.544  0.00  0.00    +0.210 HD
ENDBRANCH   3  20
BRANCH   4  22
ATOM     22  O   UNL     1      30.169  -5.006  51.300  0.00  0.00    -0.385 OA
ATOM     23  H   UNL     1      29.306  -5.290  50.901  0.00  0.00    +0.210 HD
ENDBRANCH   4  22
BRANCH   1  24
ATOM     24  C   UNL     1      33.431  -3.872  48.229  0.00  0.00    +0.206 C 
BRANCH  24  25
ATOM     25  O   UNL     1      34.199  -5.035  48.031  0.00  0.00    -0.284 OA
BRANCH  25  26
ATOM     26  P   UNL     1      35.811  -4.576  47.712  0.00  0.00    +0.472 P 
ATOM     27  O   UNL     1      35.832  -3.346  46.830  0.00  0.00    -0.228 OA
BRANCH  26  28
ATOM     28  O   UNL     1      36.652  -5.839  46.959  0.00  0.00    -0.303 OA
ATOM     29  H   UNL     1      36.409  -5.778  46.001  0.00  0.00    +0.222 HD
ENDBRANCH  26  28
BRANCH  26  30
ATOM     30  O   UNL     1      36.574  -4.214  49.178  0.00  0.00    -0.303 OA
ATOM     31  H   UNL     1      37.380  -3.699  48.923  0.00  0.00    +0.222 HD
ENDBRANCH  26  30
ENDBRANCH  25  26
ENDBRANCH  24  25
ENDBRANCH   1  24
TORSDOF 8
ENDMDL
MODEL 7
REMARK VINA RESULT:    -6.513      3.567      6.934
REMARK INTER + INTRA:          -9.741
REMARK INTER:                  -8.963
REMARK INTRA:                  -0.778
REMARK UNBOUND:                -0.944
REMARK  Name = 5GP
REMARK  8 active torsions:
REMARK  status: ('A' for Active; 'I' for Inactive)
REMARK    1  A    between atoms: P_1  and  O_3
REMARK    2  A    between atoms: P_1  and  O_4
REMARK    3  A    between atoms: P_1  and  O_5
REMARK    4  A    between atoms: O_5  and  C_6
REMARK    5  A    between atoms: C_6  and  C_7
REMARK    6  A    between atoms: C_9  and  O_10
REMARK    7  A    between atoms: C_11  and  O_12
REMARK    8  A    between atoms: C_13  and  N_14
REMARK                            x       y       z     vdW  Elec       q    Type
REMARK                         _______ _______ _______ _____ _____    ______ ____
ROOT
ATOM      1  C   UNL     1      26.257  -0.861  49.248  0.00  0.00    +0.178 C 
ATOM      2  O   UNL     1      26.177  -1.845  50.261  0.00  0.00    -0.346 OA
ATOM      3  C   UNL     1      24.949  -0.057  49.221  0.00  0.00    +0.178 C 
ATOM      4  C   UNL     1      24.415  -0.265  50.619  0.00  0.00    +0.195 C 
ATOM      5  C   UNL     1      24.998  -1.623  51.009  0.00  0.00    +0.253 C 
ENDROOT
BRANCH   5   6
ATOM      6  N   UNL     1      25.294  -1.665  52.441  0.00  0.00    -0.285 N 
ATOM      7  C   UNL     1      26.450  -1.326  53.071  0.00  0.00    +0.203 A 
ATOM      8  N   UNL     1      26.359  -1.379  54.430  0.00  0.00    -0.229 NA
ATOM      9  C   UNL     1      25.082  -1.758  54.626  0.00  0.00    +0.172 A 
ATOM     10  C   UNL     1      24.394  -1.953  55.815  0.00  0.00    +0.280 A 
ATOM     11  O   UNL     1      24.963  -1.804  56.929  0.00  0.00    -0.265 OA
ATOM     12  N   UNL     1      23.075  -2.310  55.740  0.00  0.00    -0.293 N 
ATOM     13  C   UNL     1      22.448  -2.463  54.525  0.00  0.00    +0.195 A 
ATOM     14  N   UNL     1      21.070  -2.830  54.470  0.00  0.00    -0.329 N 
ATOM     15  N   UNL     1      23.140  -2.263  53.361  0.00  0.00    -0.196 NA
ATOM     16  C   UNL     1      24.447  -1.920  53.446  0.00  0.00    +0.171 A 
ATOM     17  H   UNL     1      22.536  -2.464  56.623  0.00  0.00    +0.172 HD
ATOM     18  H   UNL     1      20.591  -2.946  53.550  0.00  0.00    +0.145 HD
ATOM     19  H   UNL     1      20.524  -2.987  55.346  0.00  0.00    +0.145 HD
ENDBRANCH   5   6
BRANCH   3  20
ATOM     20  O   UNL     1      24.068  -0.542  48.233  0.00  0.00    -0.386 OA
ATOM     21  H   UNL     1      23.260   0.036  48.222  0.00  0.00    +0.210 HD
ENDBRANCH   3  20
BRANCH   4  22
ATOM     22  O   UNL     1      23.009  -0.207  50.701  0.00  0.00    -0.385 OA
ATOM     23  H   UNL     1      22.723  -0.593  51.569  0.00  0.00    +0.210 HD
ENDBRANCH   4  22
BRANCH   1  24
ATOM     24  C   UNL     1      27.469   0.040  49.513  0.00  0.00    +0.206 C 
BRANCH  24  25
ATOM     25  O   UNL     1      27.674   0.878  48.401  0.00  0.00    -0.284 OA
BRANCH  25  26
ATOM     26  P   UNL     1      28.741   2.131  48.853  0.00  0.00    +0.472 P 
ATOM     27  O   UNL     1      29.839   2.271  47.821  0.00  0.00    -0.228 OA
BRANCH  26  28
ATOM     28  O   UNL     1      29.416   1.817  50.375  0.00  0.00    -0.303 OA
ATOM     29  H   UNL     1      28.645   1.623  50.965  0.00  0.00    +0.222 HD
ENDBRANCH  26  28
BRANCH  26  30
ATOM     30  O   UNL     1      27.874   3.581  48.933  0.00  0.00    -0.303 OA
ATOM     31  H   UNL     1      28.402   4.222  48.393  0.00  0.00    +0.222 HD
ENDBRANCH  26  30
ENDBRANCH  25  26
ENDBRANCH  24  25
ENDBRANCH   1  24
TORSDOF 8
ENDMDL
MODEL 8
REMARK VINA RESULT:    -6.484      3.250      5.473
REMARK INTER + INTRA:          -9.703
REMARK INTER:                  -9.044
REMARK INTRA:                  -0.658
REMARK UNBOUND:                -0.944
REMARK  Name = 5GP
REMARK  8 active torsions:
REMARK  status: ('A' for Active; 'I' for Inactive)
REMARK    1  A    between atoms: P_1  and  O_3
REMARK    2  A    between atoms: P_1  and  O_4
REMARK    3  A    between atoms: P_1  and  O_5
REMARK    4  A    between atoms: O_5  and  C_6
REMARK    5  A    between atoms: C_6  and  C_7
REMARK    6  A    between atoms: C_9  and  O_10
REMARK    7  A    between atoms: C_11  and  O_12
REMARK    8  A    between atoms: C_13  and  N_14
REMARK                            x       y       z     vdW  Elec       q    Type
REMARK                         _______ _______ _______ _____ _____    ______ ____
ROOT
ATOM      1  C   UNL     1      25.410  -2.053  51.562  0.00  0.00    +0.178 C 
ATOM      2  O   UNL     1      24.638  -2.930  50.764  0.00  0.00    -0.346 OA
ATOM      3  C   UNL     1      25.063  -0.602  51.198  0.00  0.00    +0.178 C 
ATOM      4  C   UNL     1      23.682  -0.741  50.601  0.00  0.00    +0.195 C 
ATOM      5  C   UNL     1      23.693  -2.164  50.044  0.00  0.00    +0.253 C 
ENDROOT
BRANCH   5   6
ATOM      6  N   UNL     1      22.365  -2.770  50.151  0.00  0.00    -0.285 N 
ATOM      7  C   UNL     1      21.606  -3.313  49.161  0.00  0.00    +0.203 A 
ATOM      8  N   UNL     1      20.460  -3.891  49.617  0.00  0.00    -0.229 NA
ATOM      9  C   UNL     1      20.539  -3.696  50.947  0.00  0.00    +0.172 A 
ATOM     10  C   UNL     1      19.666  -4.094  51.949  0.00  0.00    +0.280 A 
ATOM     11  O   UNL     1      18.603  -4.714  51.680  0.00  0.00    -0.265 OA
ATOM     12  N   UNL     1      19.997  -3.795  53.243  0.00  0.00    -0.293 N 
ATOM     13  C   UNL     1      21.163  -3.128  53.542  0.00  0.00    +0.195 A 
ATOM     14  N   UNL     1      21.493  -2.832  54.899  0.00  0.00    -0.329 N 
ATOM     15  N   UNL     1      22.016  -2.745  52.542  0.00  0.00    -0.196 NA
ATOM     16  C   UNL     1      21.674  -3.037  51.265  0.00  0.00    +0.171 A 
ATOM     17  H   UNL     1      19.355  -4.085  54.015  0.00  0.00    +0.172 HD
ATOM     18  H   UNL     1      22.377  -2.328  55.129  0.00  0.00    +0.145 HD
ATOM     19  H   UNL     1      20.857  -3.116  55.677  0.00  0.00    +0.145 HD
ENDBRANCH   5   6
BRANCH   3  20
ATOM     20  O   UNL     1      25.992  -0.067  50.282  0.00  0.00    -0.386 OA
ATOM     21  H   UNL     1      26.257  -0.785  49.649  0.00  0.00    +0.210 HD
ENDBRANCH   3  20
BRANCH   4  22
ATOM     22  O   UNL     1      23.382   0.243  49.638  0.00  0.00    -0.385 OA
ATOM     23  H   UNL     1      22.738  -0.135  48.985  0.00  0.00    +0.210 HD
ENDBRANCH   4  22
BRANCH   1  24
ATOM     24  C   UNL     1      25.135  -2.345  53.043  0.00  0.00    +0.206 C 
BRANCH  24  25
ATOM     25  O   UNL     1      24.782  -1.147  53.692  0.00  0.00    -0.284 OA
BRANCH  25  26
ATOM     26  P   UNL     1      25.233  -1.264  55.334  0.00  0.00    +0.472 P 
ATOM     27  O   UNL     1      26.042  -0.050  55.736  0.00  0.00    -0.228 OA
BRANCH  26  28
ATOM     28  O   UNL     1      26.137  -2.672  55.603  0.00  0.00    -0.303 OA
ATOM     29  H   UNL     1      27.065  -2.438  55.348  0.00  0.00    +0.222 HD
ENDBRANCH  26  28
BRANCH  26  30
ATOM     30  O   UNL     1      23.833  -1.330  56.280  0.00  0.00    -0.303 OA
ATOM     31  H   UNL     1      23.512  -2.263  56.193  0.00  0.00    +0.222 HD
ENDBRANCH  26  30
ENDBRANCH  25  26
ENDBRANCH  24  25
ENDBRANCH   1  24
TORSDOF 8
ENDMDL
MODEL 9
REMARK VINA RESULT:    -6.456      2.798      4.226
REMARK INTER + INTRA:          -9.665
REMARK INTER:                  -8.835
REMARK INTRA:                  -0.830
REMARK UNBOUND:                -0.944
REMARK  Name = 5GP
REMARK  8 active torsions:
REMARK  status: ('A' for Active; 'I' for Inactive)
REMARK    1  A    between atoms: P_1  and  O_3
REMARK    2  A    between atoms: P_1  and  O_4
REMARK    3  A    between atoms: P_1  and  O_5
REMARK    4  A    between atoms: O_5  and  C_6
REMARK    5  A    between atoms: C_6  and  C_7
REMARK    6  A    between atoms: C_9  and  O_10
REMARK    7  A    between atoms: C_11  and  O_12
REMARK    8  A    between atoms: C_13  and  N_14
REMARK                            x       y       z     vdW  Elec       q    Type
REMARK                         _______ _______ _______ _____ _____    ______ ____
ROOT
ATOM      1  C   UNL     1      24.250  -1.361  52.556  0.00  0.00    +0.178 C 
ATOM      2  O   UNL     1      25.543  -0.887  52.230  0.00  0.00    -0.346 OA
ATOM      3  C   UNL     1      23.532  -1.793  51.269  0.00  0.00    +0.178 C 
ATOM      4  C   UNL     1      24.686  -2.072  50.335  0.00  0.00    +0.195 C 
ATOM      5  C   UNL     1      25.783  -1.148  50.862  0.00  0.00    +0.253 C 
ENDROOT
BRANCH   5   6
ATOM      6  N   UNL     1      27.101  -1.760  50.688  0.00  0.00    -0.285 N 
ATOM      7  C   UNL     1      27.401  -3.075  50.512  0.00  0.00    +0.203 A 
ATOM      8  N   UNL     1      28.723  -3.299  50.273  0.00  0.00    -0.229 NA
ATOM      9  C   UNL     1      29.242  -2.057  50.295  0.00  0.00    +0.172 A 
ATOM     10  C   UNL     1      30.550  -1.645  50.086  0.00  0.00    +0.280 A 
ATOM     11  O   UNL     1      31.467  -2.478  49.857  0.00  0.00    -0.265 OA
ATOM     12  N   UNL     1      30.814  -0.303  50.132  0.00  0.00    -0.293 N 
ATOM     13  C   UNL     1      29.813   0.610  50.371  0.00  0.00    +0.195 A 
ATOM     14  N   UNL     1      30.109   2.006  50.408  0.00  0.00    -0.329 N 
ATOM     15  N   UNL     1      28.527   0.188  50.572  0.00  0.00    -0.196 NA
ATOM     16  C   UNL     1      28.278  -1.143  50.534  0.00  0.00    +0.171 A 
ATOM     17  H   UNL     1      31.793   0.031  49.977  0.00  0.00    +0.172 HD
ATOM     18  H   UNL     1      29.352   2.701  50.587  0.00  0.00    +0.145 HD
ATOM     19  H   UNL     1      31.083   2.349  50.256  0.00  0.00    +0.145 HD
ENDBRANCH   5   6
BRANCH   3  20
ATOM     20  O   UNL     1      22.686  -0.774  50.786  0.00  0.00    -0.386 OA
ATOM     21  H   UNL     1      23.136  -0.330  50.020  0.00  0.00    +0.210 HD
ENDBRANCH   3  20
BRANCH   4  22
ATOM     22  O   UNL     1      24.375  -1.866  48.976  0.00  0.00    -0.385 OA
ATOM     23  H   UNL     1      23.889  -2.661  48.635  0.00  0.00    +0.210 HD
ENDBRANCH   4  22
BRANCH   1  24
ATOM     24  C   UNL     1      24.374  -2.522  53.551  0.00  0.00    +0.206 C 
BRANCH  24  25
ATOM     25  O   UNL     1      23.984  -2.077  54.829  0.00  0.00    -0.284 OA
BRANCH  25  26
ATOM     26  P   UNL     1      25.382  -1.627  55.698  0.00  0.00    +0.472 P 
ATOM     27  O   UNL     1      25.507  -0.119  55.729  0.00  0.00    -0.228 OA
BRANCH  26  28
ATOM     28  O   UNL     1      26.766  -2.304  54.992  0.00  0.00    -0.303 OA
ATOM     29  H   UNL     1      27.161  -1.577  54.448  0.00  0.00    +0.222 HD
ENDBRANCH  26  28
BRANCH  26  30
ATOM     30  O   UNL     1      25.247  -2.200  57.283  0.00  0.00    -0.303 OA
ATOM     31  H   UNL     1      25.650  -1.491  57.844  0.00  0.00    +0.222 HD
ENDBRANCH  26  30
ENDBRANCH  25  26
ENDBRANCH  24  25
ENDBRANCH   1  24
TORSDOF 8
ENDMDL
MODEL 10
REMARK VINA RESULT:    -6.411      1.562      2.648
REMARK INTER + INTRA:          -9.603
REMARK INTER:                  -8.569
REMARK INTRA:                  -1.034
REMARK UNBOUND:                -0.944
REMARK  Name = 5GP
REMARK  8 active torsions:
REMARK  status: ('A' for Active; 'I' for Inactive)
REMARK    1  A    between atoms: P_1  and  O_3
REMARK    2  A    between atoms: P_1  and  O_4
REMARK    3  A    between atoms: P_1  and  O_5
REMARK    4  A    between atoms: O_5  and  C_6
REMARK    5  A    between atoms: C_6  and  C_7
REMARK    6  A    between atoms: C_9  and  O_10
REMARK    7  A    between atoms: C_11  and  O_12
REMARK    8  A    between atoms: C_13  and  N_14
REMARK                            x       y       z     vdW  Elec       q    Type
REMARK                         _______ _______ _______ _____ _____    ______ ____
ROOT
ATOM      1  C   UNL     1      24.032  -4.522  53.217  0.00  0.00    +0.178 C 
ATOM      2  O   UNL     1      23.947  -4.458  51.806  0.00  0.00    -0.346 OA
ATOM      3  C   UNL     1      25.491  -4.769  53.624  0.00  0.00    +0.178 C 
ATOM      4  C   UNL     1      26.252  -4.259  52.423  0.00  0.00    +0.195 C 
ATOM      5  C   UNL     1      25.259  -4.462  51.279  0.00  0.00    +0.253 C 
ENDROOT
BRANCH   5   6
ATOM      6  N   UNL     1      25.404  -3.406  50.277  0.00  0.00    -0.285 N 
ATOM      7  C   UNL     1      25.800  -3.525  48.981  0.00  0.00    +0.203 A 
ATOM      8  N   UNL     1      25.724  -2.356  48.285  0.00  0.00    -0.229 NA
ATOM      9  C   UNL     1      25.248  -1.495  49.204  0.00  0.00    +0.172 A 
ATOM     10  C   UNL     1      24.934  -0.150  49.072  0.00  0.00    +0.280 A 
ATOM     11  O   UNL     1      25.105   0.455  47.980  0.00  0.00    -0.265 OA
ATOM     12  N   UNL     1      24.429   0.500  50.164  0.00  0.00    -0.293 N 
ATOM     13  C   UNL     1      24.230  -0.160  51.355  0.00  0.00    +0.195 A 
ATOM     14  N   UNL     1      23.696   0.536  52.481  0.00  0.00    -0.329 N 
ATOM     15  N   UNL     1      24.542  -1.488  51.469  0.00  0.00    -0.196 NA
ATOM     16  C   UNL     1      25.051  -2.119  50.384  0.00  0.00    +0.171 A 
ATOM     17  H   UNL     1      24.185   1.514  50.089  0.00  0.00    +0.172 HD
ATOM     18  H   UNL     1      23.543   0.037  53.385  0.00  0.00    +0.145 HD
ATOM     19  H   UNL     1      23.451   1.548  52.415  0.00  0.00    +0.145 HD
ENDBRANCH   5   6
BRANCH   3  20
ATOM     20  O   UNL     1      25.731  -6.137  53.869  0.00  0.00    -0.386 OA
ATOM     21  H   UNL     1      25.177  -6.419  54.644  0.00  0.00    +0.210 HD
ENDBRANCH   3  20
BRANCH   4  22
ATOM     22  O   UNL     1      27.489  -4.903  52.222  0.00  0.00    -0.385 OA
ATOM     23  H   UNL     1      27.577  -5.639  52.881  0.00  0.00    +0.210 HD
ENDBRANCH   4  22
BRANCH   1  24
ATOM     24  C   UNL     1      23.491  -3.217  53.815  0.00  0.00    +0.206 C 
BRANCH  24  25
ATOM     25  O   UNL     1      23.932  -3.102  55.147  0.00  0.00    -0.284 OA
BRANCH  25  26
ATOM     26  P   UNL     1      24.130  -1.447  55.513  0.00  0.00    +0.472 P 
ATOM     27  O   UNL     1      24.496  -1.281  56.972  0.00  0.00    -0.228 OA
BRANCH  26  28
ATOM     28  O   UNL     1      22.709  -0.588  55.175  0.00  0.00    -0.303 OA
ATOM     29  H   UNL     1      21.971  -1.194  55.440  0.00  0.00    +0.222 HD
ENDBRANCH  26  28
BRANCH  26  30
ATOM     30  O   UNL     1      25.380  -0.824  54.558  0.00  0.00    -0.303 OA
ATOM     31  H   UNL     1      25.783  -0.105  55.107  0.00  0.00    +0.222 HD
ENDBRANCH  26  30
ENDBRANCH  25  26
ENDBRANCH  24  25
ENDBRANCH   1  24
TORSDOF 8
ENDMDL
MODEL 11
REMARK VINA RESULT:    -6.405      2.505      4.175
REMARK INTER + INTRA:          -9.596
REMARK INTER:                  -8.631
REMARK INTRA:                  -0.964
REMARK UNBOUND:                -0.944
REMARK  Name = 5GP
REMARK  8 active torsions:
REMARK  status: ('A' for Active; 'I' for Inactive)
REMARK    1  A    between atoms: P_1  and  O_3
REMARK    2  A    between atoms: P_1  and  O_4
REMARK    3  A    between atoms: P_1  and  O_5
REMARK    4  A    between atoms: O_5  and  C_6
REMARK    5  A    between atoms: C_6  and  C_7
REMARK    6  A    between atoms: C_9  and  O_10
REMARK    7  A    between atoms: C_11  and  O_12
REMARK    8  A    between atoms: C_13  and  N_14
REMARK                            x       y       z     vdW  Elec       q    Type
REMARK                         _______ _______ _______ _____ _____    ______ ____
ROOT
ATOM      1  C   UNL     1      25.803  -2.331  55.095  0.00  0.00    +0.178 C 
ATOM      2  O   UNL     1      25.701  -1.791  53.791  0.00  0.00    -0.346 OA
ATOM      3  C   UNL     1      24.542  -1.965  55.892  0.00  0.00    +0.178 C 
ATOM      4  C   UNL     1      23.531  -1.716  54.798  0.00  0.00    +0.195 C 
ATOM      5  C   UNL     1      24.400  -1.263  53.626  0.00  0.00    +0.253 C 
ENDROOT
BRANCH   5   6
ATOM      6  N   UNL     1      23.830  -1.715  52.356  0.00  0.00    -0.285 N 
ATOM      7  C   UNL     1      23.082  -2.825  52.118  0.00  0.00    +0.203 A 
ATOM      8  N   UNL     1      22.616  -2.897  50.840  0.00  0.00    -0.229 NA
ATOM      9  C   UNL     1      23.098  -1.768  50.285  0.00  0.00    +0.172 A 
ATOM     10  C   UNL     1      22.928  -1.276  49.000  0.00  0.00    +0.280 A 
ATOM     11  O   UNL     1      22.262  -1.914  48.140  0.00  0.00    -0.265 OA
ATOM     12  N   UNL     1      23.503  -0.073  48.693  0.00  0.00    -0.293 N 
ATOM     13  C   UNL     1      24.222   0.631  49.632  0.00  0.00    +0.195 A 
ATOM     14  N   UNL     1      24.808   1.887  49.293  0.00  0.00    -0.329 N 
ATOM     15  N   UNL     1      24.378   0.133  50.898  0.00  0.00    -0.196 NA
ATOM     16  C   UNL     1      23.812  -1.063  51.188  0.00  0.00    +0.171 A 
ATOM     17  H   UNL     1      23.389   0.317  47.730  0.00  0.00    +0.172 HD
ATOM     18  H   UNL     1      25.352   2.424  50.003  0.00  0.00    +0.145 HD
ATOM     19  H   UNL     1      24.701   2.284  48.334  0.00  0.00    +0.145 HD
ENDBRANCH   5   6
BRANCH   3  20
ATOM     20  O   UNL     1      24.755  -0.826  56.695  0.00  0.00    -0.386 OA
ATOM     21  H   UNL     1      25.631  -0.925  57.154  0.00  0.00    +0.210 HD
ENDBRANCH   3  20
BRANCH   4  22
ATOM     22  O   UNL     1      22.531  -0.789  55.154  0.00  0.00    -0.385 OA
ATOM     23  H   UNL     1      22.034  -1.139  55.938  0.00  0.00    +0.210 HD
ENDBRANCH   4  22
BRANCH   1  24
ATOM     24  C   UNL     1      25.990  -3.851  54.999  0.00  0.00    +0.206 C 
BRANCH  24  25
ATOM     25  O   UNL     1      26.310  -4.193  53.672  0.00  0.00    -0.284 OA
BRANCH  25  26
ATOM     26  P   UNL     1      25.555  -5.677  53.296  0.00  0.00    +0.472 P 
ATOM     27  O   UNL     1      25.278  -5.754  51.810  0.00  0.00    -0.228 OA
BRANCH  26  28
ATOM     28  O   UNL     1      24.108  -5.844  54.162  0.00  0.00    -0.303 OA
ATOM     29  H   UNL     1      24.379  -6.158  55.061  0.00  0.00    +0.222 HD
ENDBRANCH  26  28
BRANCH  26  30
ATOM     30  O   UNL     1      26.594  -6.940  53.728  0.00  0.00    -0.303 OA
ATOM     31  H   UNL     1      26.491  -7.610  53.005  0.00  0.00    +0.222 HD
ENDBRANCH  26  30
ENDBRANCH  25  26
ENDBRANCH  24  25
ENDBRANCH   1  24
TORSDOF 8
ENDMDL
MODEL 12
REMARK VINA RESULT:    -6.375      2.415      4.092
REMARK INTER + INTRA:          -9.555
REMARK INTER:                  -8.865
REMARK INTRA:                  -0.691
REMARK UNBOUND:                -0.944
REMARK  Name = 5GP
REMARK  8 active torsions:
REMARK  status: ('A' for Active; 'I' for Inactive)
REMARK    1  A    between atoms: P_1  and  O_3
REMARK    2  A    between atoms: P_1  and  O_4
REMARK    3  A    between atoms: P_1  and  O_5
REMARK    4  A    between atoms: O_5  and  C_6
REMARK    5  A    between atoms: C_6  and  C_7
REMARK    6  A    between atoms: C_9  and  O_10
REMARK    7  A    between atoms: C_11  and  O_12
REMARK    8  A    between atoms: C_13  and  N_14
REMARK                            x       y       z     vdW  Elec       q    Type
REMARK                         _______ _______ _______ _____ _____    ______ ____
ROOT
ATOM      1  C   UNL     1      24.554  -3.551  54.857  0.00  0.00    +0.178 C 
ATOM      2  O   UNL     1      25.600  -3.396  53.916  0.00  0.00    -0.346 OA
ATOM      3  C   UNL     1      24.464  -2.286  55.723  0.00  0.00    +0.178 C 
ATOM      4  C   UNL     1      25.104  -1.243  54.838  0.00  0.00    +0.195 C 
ATOM      5  C   UNL     1      26.071  -2.064  53.986  0.00  0.00    +0.253 C 
ENDROOT
BRANCH   5   6
ATOM      6  N   UNL     1      26.183  -1.498  52.642  0.00  0.00    -0.285 N 
ATOM      7  C   UNL     1      27.306  -1.087  51.994  0.00  0.00    +0.203 A 
ATOM      8  N   UNL     1      27.076  -0.707  50.705  0.00  0.00    -0.229 NA
ATOM      9  C   UNL     1      25.752  -0.910  50.569  0.00  0.00    +0.172 A 
ATOM     10  C   UNL     1      24.942  -0.726  49.458  0.00  0.00    +0.280 A 
ATOM     11  O   UNL     1      25.412  -0.286  48.375  0.00  0.00    -0.265 OA
ATOM     12  N   UNL     1      23.616  -1.040  49.573  0.00  0.00    -0.293 N 
ATOM     13  C   UNL     1      23.101  -1.530  50.751  0.00  0.00    +0.195 A 
ATOM     14  N   UNL     1      21.715  -1.858  50.848  0.00  0.00    -0.329 N 
ATOM     15  N   UNL     1      23.914  -1.710  51.838  0.00  0.00    -0.196 NA
ATOM     16  C   UNL     1      25.223  -1.386  51.716  0.00  0.00    +0.171 A 
ATOM     17  H   UNL     1      22.986  -0.909  48.749  0.00  0.00    +0.172 HD
ATOM     18  H   UNL     1      21.322  -2.231  51.739  0.00  0.00    +0.145 HD
ATOM     19  H   UNL     1      21.079  -1.729  50.030  0.00  0.00    +0.145 HD
ENDBRANCH   5   6
BRANCH   3  20
ATOM     20  O   UNL     1      25.151  -2.450  56.943  0.00  0.00    -0.386 OA
ATOM     21  H   UNL     1      26.089  -2.147  56.818  0.00  0.00    +0.210 HD
ENDBRANCH   3  20
BRANCH   4  22
ATOM     22  O   UNL     1      25.724  -0.199  55.553  0.00  0.00    -0.385 OA
ATOM     23  H   UNL     1      26.473   0.160  55.010  0.00  0.00    +0.210 HD
ENDBRANCH   4  22
BRANCH   1  24
ATOM     24  C   UNL     1      23.241  -3.822  54.112  0.00  0.00    +0.206 C 
BRANCH  24  25
ATOM     25  O   UNL     1      22.235  -2.985  54.631  0.00  0.00    -0.284 OA
BRANCH  25  26
ATOM     26  P   UNL     1      20.716  -3.683  54.287  0.00  0.00    +0.472 P 
ATOM     27  O   UNL     1      20.469  -3.671  52.794  0.00  0.00    -0.228 OA
BRANCH  26  28
ATOM     28  O   UNL     1      19.480  -2.840  55.082  0.00  0.00    -0.303 OA
ATOM     29  H   UNL     1      18.643  -3.126  54.635  0.00  0.00    +0.222 HD
ENDBRANCH  26  28
BRANCH  26  30
ATOM     30  O   UNL     1      20.718  -5.284  54.832  0.00  0.00    -0.303 OA
ATOM     31  H   UNL     1      20.031  -5.739  54.281  0.00  0.00    +0.222 HD
ENDBRANCH  26  30
ENDBRANCH  25  26
ENDBRANCH  24  25
ENDBRANCH   1  24
TORSDOF 8
ENDMDL
MODEL 13
REMARK VINA RESULT:    -6.285      1.929      2.448
REMARK INTER + INTRA:          -9.434
REMARK INTER:                  -8.379
REMARK INTRA:                  -1.054
REMARK UNBOUND:                -0.944
REMARK  Name = 5GP
REMARK  8 active torsions:
REMARK  status: ('A' for Active; 'I' for Inactive)
REMARK    1  A    between atoms: P_1  and  O_3
REMARK    2  A    between atoms: P_1  and  O_4
REMARK    3  A    between atoms: P_1  and  O_5
REMARK    4  A    between atoms: O_5  and  C_6
REMARK    5  A    between atoms: C_6  and  C_7
REMARK    6  A    between atoms: C_9  and  O_10
REMARK    7  A    between atoms: C_11  and  O_12
REMARK    8  A    between atoms: C_13  and  N_14
REMARK                            x       y       z     vdW  Elec       q    Type
REMARK                         _______ _______ _______ _____ _____    ______ ____
ROOT
ATOM      1  C   UNL     1      24.165  -3.289  53.435  0.00  0.00    +0.178 C 
ATOM      2  O   UNL     1      23.983  -3.036  52.055  0.00  0.00    -0.346 OA
ATOM      3  C   UNL     1      25.552  -2.786  53.861  0.00  0.00    +0.178 C 
ATOM      4  C   UNL     1      25.857  -1.750  52.806  0.00  0.00    +0.195 C 
ATOM      5  C   UNL     1      25.064  -2.249  51.598  0.00  0.00    +0.253 C 
ENDROOT
BRANCH   5   6
ATOM      6  N   UNL     1      24.569  -1.123  50.805  0.00  0.00    -0.285 N 
ATOM      7  C   UNL     1      23.342  -0.538  50.849  0.00  0.00    +0.203 A 
ATOM      8  N   UNL     1      23.240   0.562  50.052  0.00  0.00    -0.229 NA
ATOM      9  C   UNL     1      24.470   0.650  49.510  0.00  0.00    +0.172 A 
ATOM     10  C   UNL     1      24.980   1.594  48.631  0.00  0.00    +0.280 A 
ATOM     11  O   UNL     1      24.263   2.535  48.197  0.00  0.00    -0.265 OA
ATOM     12  N   UNL     1      26.289   1.474  48.252  0.00  0.00    -0.293 N 
ATOM     13  C   UNL     1      27.078   0.454  48.732  0.00  0.00    +0.195 A 
ATOM     14  N   UNL     1      28.443   0.352  48.329  0.00  0.00    -0.329 N 
ATOM     15  N   UNL     1      26.561  -0.468  49.602  0.00  0.00    -0.196 NA
ATOM     16  C   UNL     1      25.261  -0.346  49.963  0.00  0.00    +0.171 A 
ATOM     17  H   UNL     1      26.695   2.174  47.590  0.00  0.00    +0.172 HD
ATOM     18  H   UNL     1      29.044  -0.420  48.692  0.00  0.00    +0.145 HD
ATOM     19  H   UNL     1      28.857   1.045  47.667  0.00  0.00    +0.145 HD
ENDBRANCH   5   6
BRANCH   3  20
ATOM     20  O   UNL     1      26.496  -3.834  53.873  0.00  0.00    -0.386 OA
ATOM     21  H   UNL     1      26.348  -4.381  54.688  0.00  0.00    +0.210 HD
ENDBRANCH   3  20
BRANCH   4  22
ATOM     22  O   UNL     1      27.234  -1.589  52.553  0.00  0.00    -0.385 OA
ATOM     23  H   UNL     1      27.365  -1.432  51.582  0.00  0.00    +0.210 HD
ENDBRANCH   4  22
BRANCH   1  24
ATOM     24  C   UNL     1      23.046  -2.601  54.227  0.00  0.00    +0.206 C 
BRANCH  24  25
ATOM     25  O   UNL     1      22.222  -3.582  54.810  0.00  0.00    -0.284 OA
BRANCH  25  26
ATOM     26  P   UNL     1      20.752  -3.641  53.945  0.00  0.00    +0.472 P 
ATOM     27  O   UNL     1      20.304  -5.078  53.784  0.00  0.00    -0.228 OA
BRANCH  26  28
ATOM     28  O   UNL     1      20.928  -2.920  52.422  0.00  0.00    -0.303 OA
ATOM     29  H   UNL     1      20.404  -2.080  52.471  0.00  0.00    +0.222 HD
ENDBRANCH  26  28
BRANCH  26  30
ATOM     30  O   UNL     1      19.575  -2.793  54.814  0.00  0.00    -0.303 OA
ATOM     31  H   UNL     1      18.721  -3.008  54.360  0.00  0.00    +0.222 HD
ENDBRANCH  26  30
ENDBRANCH  25  26
ENDBRANCH  24  25
ENDBRANCH   1  24
TORSDOF 8
ENDMDL
MODEL 14
REMARK VINA RESULT:    -6.284      5.117      7.202
REMARK INTER + INTRA:          -9.431
REMARK INTER:                  -8.859
REMARK INTRA:                  -0.572
REMARK UNBOUND:                -0.944
REMARK  Name = 5GP
REMARK  8 active torsions:
REMARK  status: ('A' for Active; 'I' for Inactive)
REMARK    1  A    between atoms: P_1  and  O_3
REMARK    2  A    between atoms: P_1  and  O_4
REMARK    3  A    between atoms: P_1  and  O_5
REMARK    4  A    between atoms: O_5  and  C_6
REMARK    5  A    between atoms: C_6  and  C_7
REMARK    6  A    between atoms: C_9  and  O_10
REMARK    7  A    between atoms: C_11  and  O_12
REMARK    8  A    between atoms: C_13  and  N_14
REMARK                            x       y       z     vdW  Elec       q    Type
REMARK                         _______ _______ _______ _____ _____    ______ ____
ROOT
ATOM      1  C   UNL     1      30.177  -1.407  50.614  0.00  0.00    +0.178 C 
ATOM      2  O   UNL     1      30.542  -0.050  50.447  0.00  0.00    -0.346 OA
ATOM      3  C   UNL     1      28.663  -1.551  50.405  0.00  0.00    +0.178 C 
ATOM      4  C   UNL     1      28.338  -0.341  49.561  0.00  0.00    +0.195 C 
ATOM      5  C   UNL     1      29.417   0.660  49.970  0.00  0.00    +0.253 C 
ENDROOT
BRANCH   5   6
ATOM      6  N   UNL     1      29.797   1.502  48.834  0.00  0.00    -0.285 N 
ATOM      7  C   UNL     1      29.599   1.266  47.510  0.00  0.00    +0.203 A 
ATOM      8  N   UNL     1      29.978   2.306  46.714  0.00  0.00    -0.229 NA
ATOM      9  C   UNL     1      30.414   3.216  47.606  0.00  0.00    +0.172 A 
ATOM     10  C   UNL     1      30.901   4.497  47.391  0.00  0.00    +0.280 A 
ATOM     11  O   UNL     1      31.014   4.964  46.226  0.00  0.00    -0.265 OA
ATOM     12  N   UNL     1      31.252   5.241  48.484  0.00  0.00    -0.293 N 
ATOM     13  C   UNL     1      31.120   4.738  49.758  0.00  0.00    +0.195 A 
ATOM     14  N   UNL     1      31.486   5.533  50.885  0.00  0.00    -0.329 N 
ATOM     15  N   UNL     1      30.635   3.473  49.954  0.00  0.00    -0.196 NA
ATOM     16  C   UNL     1      30.299   2.742  48.864  0.00  0.00    +0.171 A 
ATOM     17  H   UNL     1      31.622   6.209  48.346  0.00  0.00    +0.172 HD
ATOM     18  H   UNL     1      31.386   5.155  51.852  0.00  0.00    +0.145 HD
ATOM     19  H   UNL     1      31.858   6.500  50.757  0.00  0.00    +0.145 HD
ENDBRANCH   5   6
BRANCH   3  20
ATOM     20  O   UNL     1      27.972  -1.548  51.634  0.00  0.00    -0.386 OA
ATOM     21  H   UNL     1      28.016  -2.462  52.020  0.00  0.00    +0.210 HD
ENDBRANCH   3  20
BRANCH   4  22
ATOM     22  O   UNL     1      27.024   0.136  49.740  0.00  0.00    -0.385 OA
ATOM     23  H   UNL     1      26.454  -0.212  49.006  0.00  0.00    +0.210 HD
ENDBRANCH   4  22
BRANCH   1  24
ATOM     24  C   UNL     1      30.970  -2.269  49.623  0.00  0.00    +0.206 C 
BRANCH  24  25
ATOM     25  O   UNL     1      32.151  -2.717  50.244  0.00  0.00    -0.284 OA
BRANCH  25  26
ATOM     26  P   UNL     1      31.959  -4.363  50.653  0.00  0.00    +0.472 P 
ATOM     27  O   UNL     1      32.939  -4.742  51.743  0.00  0.00    -0.228 OA
BRANCH  26  28
ATOM     28  O   UNL     1      32.200  -5.346  49.294  0.00  0.00    -0.303 OA
ATOM     29  H   UNL     1      31.291  -5.608  49.000  0.00  0.00    +0.222 HD
ENDBRANCH  26  28
BRANCH  26  30
ATOM     30  O   UNL     1      30.384  -4.602  51.223  0.00  0.00    -0.303 OA
ATOM     31  H   UNL     1      30.457  -4.526  52.208  0.00  0.00    +0.222 HD
ENDBRANCH  26  30
ENDBRANCH  25  26
ENDBRANCH  24  25
ENDBRANCH   1  24
TORSDOF 8
ENDMDL
MODEL 15
REMARK VINA RESULT:    -6.222      3.768      6.906
REMARK INTER + INTRA:          -9.348
REMARK INTER:                  -8.656
REMARK INTRA:                  -0.692
REMARK UNBOUND:                -0.944
REMARK  Name = 5GP
REMARK  8 active torsions:
REMARK  status: ('A' for Active; 'I' for Inactive)
REMARK    1  A    between atoms: P_1  and  O_3
REMARK    2  A    between atoms: P_1  and  O_4
REMARK    3  A    between atoms: P_1  and  O_5
REMARK    4  A    between atoms: O_5  and  C_6
REMARK    5  A    between atoms: C_6  and  C_7
REMARK    6  A    between atoms: C_9  and  O_10
REMARK    7  A    between atoms: C_11  and  O_12
REMARK    8  A    between atoms: C_13  and  N_14
REMARK                            x       y       z     vdW  Elec       q    Type
REMARK                         _______ _______ _______ _____ _____    ______ ____
ROOT
ATOM      1  C   UNL     1      22.747  -0.053  49.860  0.00  0.00    +0.178 C 
ATOM      2  O   UNL     1      23.159  -0.347  51.181  0.00  0.00    -0.346 OA
ATOM      3  C   UNL     1      23.977   0.317  49.018  0.00  0.00    +0.178 C 
ATOM      4  C   UNL     1      25.099  -0.348  49.780  0.00  0.00    +0.195 C 
ATOM      5  C   UNL     1      24.572  -0.372  51.214  0.00  0.00    +0.253 C 
ENDROOT
BRANCH   5   6
ATOM      6  N   UNL     1      25.039  -1.569  51.915  0.00  0.00    -0.285 N 
ATOM      7  C   UNL     1      25.576  -2.700  51.382  0.00  0.00    +0.203 A 
ATOM      8  N   UNL     1      26.008  -3.586  52.323  0.00  0.00    -0.229 NA
ATOM      9  C   UNL     1      25.726  -2.952  53.478  0.00  0.00    +0.172 A 
ATOM     10  C   UNL     1      25.965  -3.353  54.784  0.00  0.00    +0.280 A 
ATOM     11  O   UNL     1      26.498  -4.467  55.037  0.00  0.00    -0.265 OA
ATOM     12  N   UNL     1      25.607  -2.500  55.792  0.00  0.00    -0.293 N 
ATOM     13  C   UNL     1      25.036  -1.278  55.519  0.00  0.00    +0.195 A 
ATOM     14  N   UNL     1      24.676  -0.400  56.585  0.00  0.00    -0.329 N 
ATOM     15  N   UNL     1      24.809  -0.895  54.224  0.00  0.00    -0.196 NA
ATOM     16  C   UNL     1      25.158  -1.752  53.235  0.00  0.00    +0.171 A 
ATOM     17  H   UNL     1      25.777  -2.781  56.784  0.00  0.00    +0.172 HD
ATOM     18  H   UNL     1      24.243   0.527  56.381  0.00  0.00    +0.145 HD
ATOM     19  H   UNL     1      24.841  -0.673  57.579  0.00  0.00    +0.145 HD
ENDBRANCH   5   6
BRANCH   3  20
ATOM     20  O   UNL     1      24.140   1.715  48.935  0.00  0.00    -0.386 OA
ATOM     21  H   UNL     1      24.372   1.948  47.998  0.00  0.00    +0.210 HD
ENDBRANCH   3  20
BRANCH   4  22
ATOM     22  O   UNL     1      26.340   0.307  49.643  0.00  0.00    -0.385 OA
ATOM     23  H   UNL     1      27.051  -0.376  49.526  0.00  0.00    +0.210 HD
ENDBRANCH   4  22
BRANCH   1  24
ATOM     24  C   UNL     1      22.009  -1.266  49.280  0.00  0.00    +0.206 C 
BRANCH  24  25
ATOM     25  O   UNL     1      22.254  -1.337  47.895  0.00  0.00    -0.284 OA
BRANCH  25  26
ATOM     26  P   UNL     1      21.482  -2.728  47.277  0.00  0.00    +0.472 P 
ATOM     27  O   UNL     1      20.793  -2.398  45.970  0.00  0.00    -0.228 OA
BRANCH  26  28
ATOM     28  O   UNL     1      20.352  -3.325  48.389  0.00  0.00    -0.303 OA
ATOM     29  H   UNL     1      20.876  -3.536  49.203  0.00  0.00    +0.222 HD
ENDBRANCH  26  28
BRANCH  26  30
ATOM     30  O   UNL     1      22.650  -3.919  46.997  0.00  0.00    -0.303 OA
ATOM     31  H   UNL     1      23.467  -3.583  47.444  0.00  0.00    +0.222 HD
ENDBRANCH  26  30
ENDBRANCH  25  26
ENDBRANCH  24  25
ENDBRANCH   1  24
TORSDOF 8
ENDMDL
MODEL 16
REMARK VINA RESULT:    -6.193      1.950      3.006
REMARK INTER + INTRA:          -9.310
REMARK INTER:                  -8.985
REMARK INTRA:                  -0.325
REMARK UNBOUND:                -0.944
REMARK  Name = 5GP
REMARK  8 active torsions:
REMARK  status: ('A' for Active; 'I' for Inactive)
REMARK    1  A    between atoms: P_1  and  O_3
REMARK    2  A    between atoms: P_1  and  O_4
REMARK    3  A    between atoms: P_1  and  O_5
REMARK    4  A    between atoms: O_5  and  C_6
REMARK    5  A    between atoms: C_6  and  C_7
REMARK    6  A    between atoms: C_9  and  O_10
REMARK    7  A    between atoms: C_11  and  O_12
REMARK    8  A    between atoms: C_13  and  N_14
REMARK                            x       y       z     vdW  Elec       q    Type
REMARK                         _______ _______ _______ _____ _____    ______ ____
ROOT
ATOM      1  C   UNL     1      23.813  -1.381  52.819  0.00  0.00    +0.178 C 
ATOM      2  O   UNL     1      23.836  -0.246  51.974  0.00  0.00    -0.346 OA
ATOM      3  C   UNL     1      23.252  -2.579  52.039  0.00  0.00    +0.178 C 
ATOM      4  C   UNL     1      23.520  -2.185  50.606  0.00  0.00    +0.195 C 
ATOM      5  C   UNL     1      23.505  -0.658  50.663  0.00  0.00    +0.253 C 
ENDROOT
BRANCH   5   6
ATOM      6  N   UNL     1      24.455  -0.096  49.702  0.00  0.00    -0.285 N 
ATOM      7  C   UNL     1      24.211   0.782  48.693  0.00  0.00    +0.203 A 
ATOM      8  N   UNL     1      25.340   1.190  48.048  0.00  0.00    -0.229 NA
ATOM      9  C   UNL     1      26.312   0.533  48.710  0.00  0.00    +0.172 A 
ATOM     10  C   UNL     1      27.686   0.570  48.522  0.00  0.00    +0.280 A 
ATOM     11  O   UNL     1      28.200   1.272  47.611  0.00  0.00    -0.265 OA
ATOM     12  N   UNL     1      28.467  -0.177  49.360  0.00  0.00    -0.293 N 
ATOM     13  C   UNL     1      27.910  -0.936  50.363  0.00  0.00    +0.195 A 
ATOM     14  N   UNL     1      28.744  -1.703  51.231  0.00  0.00    -0.329 N 
ATOM     15  N   UNL     1      26.552  -0.960  50.538  0.00  0.00    -0.196 NA
ATOM     16  C   UNL     1      25.787  -0.224  49.696  0.00  0.00    +0.171 A 
ATOM     17  H   UNL     1      29.506  -0.165  49.238  0.00  0.00    +0.172 HD
ATOM     18  H   UNL     1      28.324  -2.279  51.994  0.00  0.00    +0.145 HD
ATOM     19  H   UNL     1      29.781  -1.698  51.115  0.00  0.00    +0.145 HD
ENDBRANCH   5   6
BRANCH   3  20
ATOM     20  O   UNL     1      21.877  -2.759  52.297  0.00  0.00    -0.386 OA
ATOM     21  H   UNL     1      21.439  -3.065  51.460  0.00  0.00    +0.210 HD
ENDBRANCH   3  20
BRANCH   4  22
ATOM     22  O   UNL     1      22.598  -2.727  49.689  0.00  0.00    -0.385 OA
ATOM     23  H   UNL     1      21.770  -2.974  50.176  0.00  0.00    +0.210 HD
ENDBRANCH   4  22
BRANCH   1  24
ATOM     24  C   UNL     1      25.232  -1.656  53.333  0.00  0.00    +0.206 C 
BRANCH  24  25
ATOM     25  O   UNL     1      25.158  -2.471  54.478  0.00  0.00    -0.284 OA
BRANCH  25  26
ATOM     26  P   UNL     1      25.071  -1.467  55.855  0.00  0.00    +0.472 P 
ATOM     27  O   UNL     1      25.909  -0.225  55.642  0.00  0.00    -0.228 OA
BRANCH  26  28
ATOM     28  O   UNL     1      25.610  -2.296  57.231  0.00  0.00    -0.303 OA
ATOM     29  H   UNL     1      26.562  -2.040  57.332  0.00  0.00    +0.222 HD
ENDBRANCH  26  28
BRANCH  26  30
ATOM     30  O   UNL     1      23.460  -1.010  56.095  0.00  0.00    -0.303 OA
ATOM     31  H   UNL     1      23.133  -1.603  56.817  0.00  0.00    +0.222 HD
ENDBRANCH  26  30
ENDBRANCH  25  26
ENDBRANCH  24  25
ENDBRANCH   1  24
TORSDOF 8
ENDMDL
MODEL 17
REMARK VINA RESULT:    -6.184      3.227      6.549
REMARK INTER + INTRA:          -9.296
REMARK INTER:                  -8.302
REMARK INTRA:                  -0.994
REMARK UNBOUND:                -0.944
REMARK  Name = 5GP
REMARK  8 active torsions:
REMARK  status: ('A' for Active; 'I' for Inactive)
REMARK    1  A    between atoms: P_1  and  O_3
REMARK    2  A    between atoms: P_1  and  O_4
REMARK    3  A    between atoms: P_1  and  O_5
REMARK    4  A    between atoms: O_5  and  C_6
REMARK    5  A    between atoms: C_6  and  C_7
REMARK    6  A    between atoms: C_9  and  O_10
REMARK    7  A    between atoms: C_11  and  O_12
REMARK    8  A    between atoms: C_13  and  N_14
REMARK                            x       y       z     vdW  Elec       q    Type
REMARK                         _______ _______ _______ _____ _____    ______ ____
ROOT
ATOM      1  C   UNL     1      23.841  -2.401  48.411  0.00  0.00    +0.178 C 
ATOM      2  O   UNL     1      24.380  -2.951  49.598  0.00  0.00    -0.346 OA
ATOM      3  C   UNL     1      22.371  -2.027  48.651  0.00  0.00    +0.178 C 
ATOM      4  C   UNL     1      22.322  -1.862  50.152  0.00  0.00    +0.195 C 
ATOM      5  C   UNL     1      23.432  -2.794  50.635  0.00  0.00    +0.253 C 
ENDROOT
BRANCH   5   6
ATOM      6  N   UNL     1      24.077  -2.252  51.831  0.00  0.00    -0.285 N 
ATOM      7  C   UNL     1      25.192  -1.477  51.907  0.00  0.00    +0.203 A 
ATOM      8  N   UNL     1      25.467  -1.051  53.171  0.00  0.00    -0.229 NA
ATOM      9  C   UNL     1      24.462  -1.587  53.890  0.00  0.00    +0.172 A 
ATOM     10  C   UNL     1      24.191  -1.476  55.245  0.00  0.00    +0.280 A 
ATOM     11  O   UNL     1      24.947  -0.819  56.010  0.00  0.00    -0.265 OA
ATOM     12  N   UNL     1      23.073  -2.100  55.728  0.00  0.00    -0.293 N 
ATOM     13  C   UNL     1      22.239  -2.809  54.895  0.00  0.00    +0.195 A 
ATOM     14  N   UNL     1      21.074  -3.447  55.419  0.00  0.00    -0.329 N 
ATOM     15  N   UNL     1      22.518  -2.907  53.558  0.00  0.00    -0.196 NA
ATOM     16  C   UNL     1      23.633  -2.294  53.093  0.00  0.00    +0.171 A 
ATOM     17  H   UNL     1      22.849  -2.030  56.747  0.00  0.00    +0.172 HD
ATOM     18  H   UNL     1      20.439  -3.984  54.789  0.00  0.00    +0.145 HD
ATOM     19  H   UNL     1      20.843  -3.384  56.434  0.00  0.00    +0.145 HD
ENDBRANCH   5   6
BRANCH   3  20
ATOM     20  O   UNL     1      21.502  -3.040  48.195  0.00  0.00    -0.386 OA
ATOM     21  H   UNL     1      20.570  -2.776  48.414  0.00  0.00    +0.210 HD
ENDBRANCH   3  20
BRANCH   4  22
ATOM     22  O   UNL     1      21.059  -2.146  50.710  0.00  0.00    -0.385 OA
ATOM     23  H   UNL     1      20.993  -1.701  51.595  0.00  0.00    +0.210 HD
ENDBRANCH   4  22
BRANCH   1  24
ATOM     24  C   UNL     1      24.674  -1.182  47.995  0.00  0.00    +0.206 C 
BRANCH  24  25
ATOM     25  O   UNL     1      23.867  -0.030  48.053  0.00  0.00    -0.284 OA
BRANCH  25  26
ATOM     26  P   UNL     1      24.685   1.163  48.958  0.00  0.00    +0.472 P 
ATOM     27  O   UNL     1      24.593   2.499  48.254  0.00  0.00    -0.228 OA
BRANCH  26  28
ATOM     28  O   UNL     1      26.310   0.736  49.173  0.00  0.00    -0.303 OA
ATOM     29  H   UNL     1      26.584   1.175  50.018  0.00  0.00    +0.222 HD
ENDBRANCH  26  28
BRANCH  26  30
ATOM     30  O   UNL     1      23.953   1.291  50.478  0.00  0.00    -0.303 OA
ATOM     31  H   UNL     1      24.515   0.737  51.077  0.00  0.00    +0.222 HD
ENDBRANCH  26  30
ENDBRANCH  25  26
ENDBRANCH  24  25
ENDBRANCH   1  24
TORSDOF 8
ENDMDL
MODEL 18
REMARK VINA RESULT:    -6.159      3.154      5.797
REMARK INTER + INTRA:          -9.263
REMARK INTER:                  -8.677
REMARK INTRA:                  -0.586
REMARK UNBOUND:                -0.944
REMARK  Name = 5GP
REMARK  8 active torsions:
REMARK  status: ('A' for Active; 'I' for Inactive)
REMARK    1  A    between atoms: P_1  and  O_3
REMARK    2  A    between atoms: P_1  and  O_4
REMARK    3  A    between atoms: P_1  and  O_5
REMARK    4  A    between atoms: O_5  and  C_6
REMARK    5  A    between atoms: C_6  and  C_7
REMARK    6  A    between atoms: C_9  and  O_10
REMARK    7  A    between atoms: C_11  and  O_12
REMARK    8  A    between atoms: C_13  and  N_14
REMARK                            x       y       z     vdW  Elec       q    Type
REMARK                         _______ _______ _______ _____ _____    ______ ____
ROOT
ATOM      1  C   UNL     1      23.813  -3.257  49.255  0.00  0.00    +0.178 C 
ATOM      2  O   UNL     1      23.859  -3.781  50.569  0.00  0.00    -0.346 OA
ATOM      3  C   UNL     1      22.349  -3.032  48.852  0.00  0.00    +0.178 C 
ATOM      4  C   UNL     1      21.662  -2.907  50.192  0.00  0.00    +0.195 C 
ATOM      5  C   UNL     1      22.554  -3.740  51.112  0.00  0.00    +0.253 C 
ENDROOT
BRANCH   5   6
ATOM      6  N   UNL     1      22.586  -3.167  52.458  0.00  0.00    -0.285 N 
ATOM      7  C   UNL     1      21.642  -3.258  53.433  0.00  0.00    +0.203 A 
ATOM      8  N   UNL     1      22.030  -2.699  54.613  0.00  0.00    -0.229 NA
ATOM      9  C   UNL     1      23.273  -2.260  54.337  0.00  0.00    +0.172 A 
ATOM     10  C   UNL     1      24.186  -1.625  55.165  0.00  0.00    +0.280 A 
ATOM     11  O   UNL     1      23.902  -1.352  56.362  0.00  0.00    -0.265 OA
ATOM     12  N   UNL     1      25.411  -1.307  54.644  0.00  0.00    -0.293 N 
ATOM     13  C   UNL     1      25.729  -1.613  53.341  0.00  0.00    +0.195 A 
ATOM     14  N   UNL     1      27.015  -1.278  52.818  0.00  0.00    -0.329 N 
ATOM     15  N   UNL     1      24.818  -2.243  52.537  0.00  0.00    -0.196 NA
ATOM     16  C   UNL     1      23.605  -2.545  53.061  0.00  0.00    +0.171 A 
ATOM     17  H   UNL     1      26.116  -0.828  55.249  0.00  0.00    +0.172 HD
ATOM     18  H   UNL     1      27.259  -1.511  51.831  0.00  0.00    +0.145 HD
ATOM     19  H   UNL     1      27.724  -0.799  53.415  0.00  0.00    +0.145 HD
ENDBRANCH   5   6
BRANCH   3  20
ATOM     20  O   UNL     1      21.853  -4.112  48.094  0.00  0.00    -0.386 OA
ATOM     21  H   UNL     1      22.171  -4.957  48.507  0.00  0.00    +0.210 HD
ENDBRANCH   3  20
BRANCH   4  22
ATOM     22  O   UNL     1      20.316  -3.325  50.178  0.00  0.00    -0.385 OA
ATOM     23  H   UNL     1      19.752  -2.598  50.549  0.00  0.00    +0.210 HD
ENDBRANCH   4  22
BRANCH   1  24
ATOM     24  C   UNL     1      24.622  -1.954  49.202  0.00  0.00    +0.206 C 
BRANCH  24  25
ATOM     25  O   UNL     1      23.807  -0.926  48.690  0.00  0.00    -0.284 OA
BRANCH  25  26
ATOM     26  P   UNL     1      23.896   0.413  49.743  0.00  0.00    +0.472 P 
ATOM     27  O   UNL     1      22.612   0.534  50.535  0.00  0.00    -0.228 OA
BRANCH  26  28
ATOM     28  O   UNL     1      24.171   1.839  48.870  0.00  0.00    -0.303 OA
ATOM     29  H   UNL     1      25.060   1.719  48.451  0.00  0.00    +0.222 HD
ENDBRANCH  26  28
BRANCH  26  30
ATOM     30  O   UNL     1      25.183   0.178  50.816  0.00  0.00    -0.303 OA
ATOM     31  H   UNL     1      25.257   1.031  51.313  0.00  0.00    +0.222 HD
ENDBRANCH  26  30
ENDBRANCH  25  26
ENDBRANCH  24  25
ENDBRANCH   1  24
TORSDOF 8
ENDMDL
MODEL 19
REMARK VINA RESULT:    -6.109      2.539      3.515
REMARK INTER + INTRA:          -9.196
REMARK INTER:                  -8.374
REMARK INTRA:                  -0.822
REMARK UNBOUND:                -0.944
REMARK  Name = 5GP
REMARK  8 active torsions:
REMARK  status: ('A' for Active; 'I' for Inactive)
REMARK    1  A    between atoms: P_1  and  O_3
REMARK    2  A    between atoms: P_1  and  O_4
REMARK    3  A    between atoms: P_1  and  O_5
REMARK    4  A    between atoms: O_5  and  C_6
REMARK    5  A    between atoms: C_6  and  C_7
REMARK    6  A    between atoms: C_9  and  O_10
REMARK    7  A    between atoms: C_11  and  O_12
REMARK    8  A    between atoms: C_13  and  N_14
REMARK                            x       y       z     vdW  Elec       q    Type
REMARK                         _______ _______ _______ _____ _____    ______ ____
ROOT
ATOM      1  C   UNL     1      24.304  -3.823  54.575  0.00  0.00    +0.178 C 
ATOM      2  O   UNL     1      25.200  -3.481  53.535  0.00  0.00    -0.346 OA
ATOM      3  C   UNL     1      23.946  -2.559  55.368  0.00  0.00    +0.178 C 
ATOM      4  C   UNL     1      24.222  -1.461  54.367  0.00  0.00    +0.195 C 
ATOM      5  C   UNL     1      25.307  -2.073  53.481  0.00  0.00    +0.253 C 
ENDROOT
BRANCH   5   6
ATOM      6  N   UNL     1      25.168  -1.608  52.100  0.00  0.00    -0.285 N 
ATOM      7  C   UNL     1      24.036  -1.530  51.350  0.00  0.00    +0.203 A 
ATOM      8  N   UNL     1      24.236  -0.950  50.133  0.00  0.00    -0.229 NA
ATOM      9  C   UNL     1      25.550  -0.655  50.158  0.00  0.00    +0.172 A 
ATOM     10  C   UNL     1      26.329  -0.024  49.200  0.00  0.00    +0.280 A 
ATOM     11  O   UNL     1      25.837   0.348  48.101  0.00  0.00    -0.265 OA
ATOM     12  N   UNL     1      27.650   0.188  49.487  0.00  0.00    -0.293 N 
ATOM     13  C   UNL     1      28.188  -0.207  50.690  0.00  0.00    +0.195 A 
ATOM     14  N   UNL     1      29.568   0.029  50.972  0.00  0.00    -0.329 N 
ATOM     15  N   UNL     1      27.405  -0.827  51.627  0.00  0.00    -0.196 NA
ATOM     16  C   UNL     1      26.101  -1.039  51.328  0.00  0.00    +0.171 A 
ATOM     17  H   UNL     1      28.257   0.662  48.780  0.00  0.00    +0.172 HD
ATOM     18  H   UNL     1      29.978  -0.268  51.884  0.00  0.00    +0.145 HD
ATOM     19  H   UNL     1      30.181   0.500  50.272  0.00  0.00    +0.145 HD
ENDBRANCH   5   6
BRANCH   3  20
ATOM     20  O   UNL     1      24.739  -2.438  56.528  0.00  0.00    -0.386 OA
ATOM     21  H   UNL     1      25.344  -1.659  56.414  0.00  0.00    +0.210 HD
ENDBRANCH   3  20
BRANCH   4  22
ATOM     22  O   UNL     1      24.596  -0.238  54.958  0.00  0.00    -0.385 OA
ATOM     23  H   UNL     1      24.169   0.504  54.457  0.00  0.00    +0.210 HD
ENDBRANCH   4  22
BRANCH   1  24
ATOM     24  C   UNL     1      23.058  -4.484  53.971  0.00  0.00    +0.206 C 
BRANCH  24  25
ATOM     25  O   UNL     1      21.972  -4.310  54.849  0.00  0.00    -0.284 OA
BRANCH  25  26
ATOM     26  P   UNL     1      20.634  -3.745  53.954  0.00  0.00    +0.472 P 
ATOM     27  O   UNL     1      21.111  -2.931  52.770  0.00  0.00    -0.228 OA
BRANCH  26  28
ATOM     28  O   UNL     1      19.620  -2.801  54.930  0.00  0.00    -0.303 OA
ATOM     29  H   UNL     1      19.069  -3.451  55.435  0.00  0.00    +0.222 HD
ENDBRANCH  26  28
BRANCH  26  30
ATOM     30  O   UNL     1      19.756  -5.075  53.388  0.00  0.00    -0.303 OA
ATOM     31  H   UNL     1      19.949  -5.800  54.035  0.00  0.00    +0.222 HD
ENDBRANCH  26  30
ENDBRANCH  25  26
ENDBRANCH  24  25
ENDBRANCH   1  24
TORSDOF 8
ENDMDL
MODEL 20
REMARK VINA RESULT:    -6.100      4.224      6.805
REMARK INTER + INTRA:          -9.183
REMARK INTER:                  -8.588
REMARK INTRA:                  -0.594
REMARK UNBOUND:                -0.944
REMARK  Name = 5GP
REMARK  8 active torsions:
REMARK  status: ('A' for Active; 'I' for Inactive)
REMARK    1  A    between atoms: P_1  and  O_3
REMARK    2  A    between atoms: P_1  and  O_4
REMARK    3  A    between atoms: P_1  and  O_5
REMARK    4  A    between atoms: O_5  and  C_6
REMARK    5  A    between atoms: C_6  and  C_7
REMARK    6  A    between atoms: C_9  and  O_10
REMARK    7  A    between atoms: C_11  and  O_12
REMARK    8  A    between atoms: C_13  and  N_14
REMARK                            x       y       z     vdW  Elec       q    Type
REMARK                         _______ _______ _______ _____ _____    ______ ____
ROOT
ATOM      1  C   UNL     1      29.836   0.473  50.471  0.00  0.00    +0.178 C 
ATOM      2  O   UNL     1      28.728   0.059  51.248  0.00  0.00    -0.346 OA
ATOM      3  C   UNL     1      30.260  -0.675  49.544  0.00  0.00    +0.178 C 
ATOM      4  C   UNL     1      28.994  -1.492  49.444  0.00  0.00    +0.195 C 
ATOM      5  C   UNL     1      28.291  -1.197  50.769  0.00  0.00    +0.253 C 
ENDROOT
BRANCH   5   6
ATOM      6  N   UNL     1      26.838  -1.192  50.592  0.00  0.00    -0.285 N 
ATOM      7  C   UNL     1      26.132  -1.229  49.430  0.00  0.00    +0.203 A 
ATOM      8  N   UNL     1      24.786  -1.321  49.620  0.00  0.00    -0.229 NA
ATOM      9  C   UNL     1      24.678  -1.352  50.962  0.00  0.00    +0.172 A 
ATOM     10  C   UNL     1      23.545  -1.468  51.752  0.00  0.00    +0.280 A 
ATOM     11  O   UNL     1      22.396  -1.538  51.238  0.00  0.00    -0.265 OA
ATOM     12  N   UNL     1      23.711  -1.509  53.110  0.00  0.00    -0.293 N 
ATOM     13  C   UNL     1      24.964  -1.444  53.674  0.00  0.00    +0.195 A 
ATOM     14  N   UNL     1      25.116  -1.494  55.093  0.00  0.00    -0.329 N 
ATOM     15  N   UNL     1      26.074  -1.332  52.881  0.00  0.00    -0.196 NA
ATOM     16  C   UNL     1      25.897  -1.283  51.539  0.00  0.00    +0.171 A 
ATOM     17  H   UNL     1      22.871  -1.596  53.726  0.00  0.00    +0.172 HD
ATOM     18  H   UNL     1      26.065  -1.447  55.523  0.00  0.00    +0.145 HD
ATOM     19  H   UNL     1      24.283  -1.580  55.715  0.00  0.00    +0.145 HD
ENDBRANCH   5   6
BRANCH   3  20
ATOM     20  O   UNL     1      31.330  -1.410  50.094  0.00  0.00    -0.386 OA
ATOM     21  H   UNL     1      31.871  -0.800  50.662  0.00  0.00    +0.210 HD
ENDBRANCH   3  20
BRANCH   4  22
ATOM     22  O   UNL     1      29.223  -2.864  49.217  0.00  0.00    -0.385 OA
ATOM     23  H   UNL     1      29.463  -2.995  48.263  0.00  0.00    +0.210 HD
ENDBRANCH   4  22
BRANCH   1  24
ATOM     24  C   UNL     1      29.454   1.730  49.678  0.00  0.00    +0.206 C 
BRANCH  24  25
ATOM     25  O   UNL     1      30.324   2.779  50.029  0.00  0.00    -0.284 OA
BRANCH  25  26
ATOM     26  P   UNL     1      30.400   3.881  48.729  0.00  0.00    +0.472 P 
ATOM     27  O   UNL     1      30.069   3.174  47.432  0.00  0.00    -0.228 OA
BRANCH  26  28
ATOM     28  O   UNL     1      31.941   4.578  48.627  0.00  0.00    -0.303 OA
ATOM     29  H   UNL     1      32.549   3.830  48.395  0.00  0.00    +0.222 HD
ENDBRANCH  26  28
BRANCH  26  30
ATOM     30  O   UNL     1      29.267   5.110  48.989  0.00  0.00    -0.303 OA
ATOM     31  H   UNL     1      29.685   5.924  48.611  0.00  0.00    +0.222 HD
ENDBRANCH  26  30
ENDBRANCH  25  26
ENDBRANCH  24  25
ENDBRANCH   1  24
TORSDOF 8
ENDMDL
