MODEL 12
REMARK VINA RESULT:    -4.693      1.972      2.544
REMARK INTER + INTRA:          -5.960
REMARK INTER:                  -5.823
REMARK INTRA:                  -0.137
REMARK UNBOUND:                -0.169
REMARK  Name = PHE
REMARK  5 active torsions:
REMARK  status: ('A' for Active; 'I' for Inactive)
REMARK    1  A    between atoms: N_1  and  CA_2
REMARK    2  A    between atoms: CA_2  and  C_3
REMARK    3  A    between atoms: CA_2  and  CB_5
REMARK    4  A    between atoms: C_3  and  OXT_12
REMARK    5  A    between atoms: CB_5  and  CG_6
REMARK                            x       y       z     vdW  Elec       q    Type
REMARK                         _______ _______ _______ _____ _____    ______ ____
ROOT
ATOM      1  CA  PHE A   1      35.877   1.476   4.710  0.00  0.00    +0.165 C 
ENDROOT
BRANCH   1   2
ATOM      2  N   PHE A   1      34.907   0.689   3.944  0.00  0.00    -0.318 NA
ATOM      3  H1  PHE A   1      35.149  -0.327   4.009  0.00  0.00    +0.119 HD
ATOM      4  H2  PHE A   1      34.972   0.963   2.936  0.00  0.00    +0.119 HD
ENDBRANCH   1   2
BRANCH   1   5
ATOM      5  C   PHE A   1      36.765   2.271   3.791  0.00  0.00    +0.322 C 
ATOM      6  O   PHE A   1      37.762   1.728   3.239  0.00  0.00    -0.249 OA
BRANCH   5   7
ATOM      7  OXT PHE A   1      36.487   3.613   3.550  0.00  0.00    -0.480 OA
ATOM      8  HXT PHE A   1      37.129   4.338   3.845  0.00  0.00    +0.295 HD
ENDBRANCH   5   7
ENDBRANCH   1   5
BRANCH   1   9
ATOM      9  CB  PHE A   1      36.721   0.563   5.618  0.00  0.00    +0.065 C 
BRANCH   9  10
ATOM     10  CG  PHE A   1      36.917   1.176   6.982  0.00  0.00    -0.045 A 
ATOM     11  CD1 PHE A   1      37.872   2.189   7.171  0.00  0.00    +0.004 A 
ATOM     12  CD2 PHE A   1      36.116   0.775   8.064  0.00  0.00    +0.004 A 
ATOM     13  CE1 PHE A   1      38.036   2.777   8.429  0.00  0.00    +0.000 A 
ATOM     14  CE2 PHE A   1      36.283   1.366   9.321  0.00  0.00    +0.000 A 
ATOM     15  CZ  PHE A   1      37.243   2.365   9.503  0.00  0.00    +0.000 A 
ENDBRANCH   9  10
ENDBRANCH   1   9
TORSDOF 5
ENDMDL
