MODEL 14
REMARK VINA RESULT:    -4.621      1.843      2.091
REMARK INTER + INTRA:          -5.870
REMARK INTER:                  -5.669
REMARK INTRA:                  -0.202
REMARK UNBOUND:                -0.169
REMARK  Name = PHE
REMARK  5 active torsions:
REMARK  status: ('A' for Active; 'I' for Inactive)
REMARK    1  A    between atoms: N_1  and  CA_2
REMARK    2  A    between atoms: CA_2  and  C_3
REMARK    3  A    between atoms: CA_2  and  CB_5
REMARK    4  A    between atoms: C_3  and  OXT_12
REMARK    5  A    between atoms: CB_5  and  CG_6
REMARK                            x       y       z     vdW  Elec       q    Type
REMARK                         _______ _______ _______ _____ _____    ______ ____
ROOT
ATOM      1  CA  PHE A   1      36.715   0.544   5.077  0.00  0.00    +0.165 C 
ENDROOT
BRANCH   1   2
ATOM      2  N   PHE A   1      35.442   0.442   4.359  0.00  0.00    -0.318 NA
ATOM      3  H1  PHE A   1      34.661   0.318   5.044  0.00  0.00    +0.119 HD
ATOM      4  H2  PHE A   1      35.465  -0.410   3.751  0.00  0.00    +0.119 HD
ENDBRANCH   1   2
BRANCH   1   5
ATOM      5  C   PHE A   1      37.821  -0.119   4.300  0.00  0.00    +0.322 C 
ATOM      6  O   PHE A   1      39.028   0.121   4.576  0.00  0.00    -0.249 OA
BRANCH   5   7
ATOM      7  OXT PHE A   1      37.509  -1.001   3.270  0.00  0.00    -0.480 OA
ATOM      8  HXT PHE A   1      37.428  -0.675   2.314  0.00  0.00    +0.295 HD
ENDBRANCH   5   7
ENDBRANCH   1   5
BRANCH   1   9
ATOM      9  CB  PHE A   1      36.597  -0.076   6.481  0.00  0.00    +0.065 C 
BRANCH   9  10
ATOM     10  CG  PHE A   1      36.844   0.951   7.557  0.00  0.00    -0.045 A 
ATOM     11  CD1 PHE A   1      36.128   0.897   8.765  0.00  0.00    +0.004 A 
ATOM     12  CD2 PHE A   1      37.823   1.944   7.382  0.00  0.00    +0.004 A 
ATOM     13  CE1 PHE A   1      36.376   1.833   9.774  0.00  0.00    +0.000 A 
ATOM     14  CE2 PHE A   1      38.068   2.878   8.394  0.00  0.00    +0.000 A 
ATOM     15  CZ  PHE A   1      37.344   2.823   9.587  0.00  0.00    +0.000 A 
ENDBRANCH   9  10
ENDBRANCH   1   9
TORSDOF 5
ENDMDL
