MODEL 18
REMARK VINA RESULT:    -4.419     11.505     12.722
REMARK INTER + INTRA:          -5.622
REMARK INTER:                  -5.468
REMARK INTRA:                  -0.154
REMARK UNBOUND:                -0.169
REMARK  Name = PHE
REMARK  5 active torsions:
REMARK  status: ('A' for Active; 'I' for Inactive)
REMARK    1  A    between atoms: N_1  and  CA_2
REMARK    2  A    between atoms: CA_2  and  C_3
REMARK    3  A    between atoms: CA_2  and  CB_5
REMARK    4  A    between atoms: C_3  and  OXT_12
REMARK    5  A    between atoms: CB_5  and  CG_6
REMARK                            x       y       z     vdW  Elec       q    Type
REMARK                         _______ _______ _______ _____ _____    ______ ____
ROOT
ATOM      1  CA  PHE A   1      28.120  -5.600  12.265  0.00  0.00    +0.165 C 
ENDROOT
BRANCH   1   2
ATOM      2  N   PHE A   1      26.900  -5.348  11.494  0.00  0.00    -0.318 NA
ATOM      3  H1  PHE A   1      26.595  -6.229  11.020  0.00  0.00    +0.119 HD
ATOM      4  H2  PHE A   1      27.113  -4.647  10.746  0.00  0.00    +0.119 HD
ENDBRANCH   1   2
BRANCH   1   5
ATOM      5  C   PHE A   1      28.544  -4.364  13.013  0.00  0.00    +0.322 C 
ATOM      6  O   PHE A   1      27.766  -3.377  13.108  0.00  0.00    -0.249 OA
BRANCH   5   7
ATOM      7  OXT PHE A   1      29.805  -4.311  13.601  0.00  0.00    -0.480 OA
ATOM      8  HXT PHE A   1      30.137  -3.463  14.044  0.00  0.00    +0.295 HD
ENDBRANCH   5   7
ENDBRANCH   1   5
BRANCH   1   9
ATOM      9  CB  PHE A   1      29.253  -6.087  11.344  0.00  0.00    +0.065 C 
BRANCH   9  10
ATOM     10  CG  PHE A   1      29.314  -7.593  11.299  0.00  0.00    -0.045 A 
ATOM     11  CD1 PHE A   1      28.615  -8.300  10.305  0.00  0.00    +0.004 A 
ATOM     12  CD2 PHE A   1      30.106  -8.301  12.218  0.00  0.00    +0.004 A 
ATOM     13  CE1 PHE A   1      28.693  -9.695  10.246  0.00  0.00    +0.000 A 
ATOM     14  CE2 PHE A   1      30.181  -9.696  12.155  0.00  0.00    +0.000 A 
ATOM     15  CZ  PHE A   1      29.475 -10.392  11.171  0.00  0.00    +0.000 A 
ENDBRANCH   9  10
ENDBRANCH   1   9
TORSDOF 5
ENDMDL
