MODEL 11
REMARK VINA RESULT:    -4.750      2.804      3.581
REMARK INTER + INTRA:          -6.030
REMARK INTER:                  -5.847
REMARK INTRA:                  -0.183
REMARK UNBOUND:                -0.169
REMARK  Name = PHE
REMARK  5 active torsions:
REMARK  status: ('A' for Active; 'I' for Inactive)
REMARK    1  A    between atoms: N_1  and  CA_2
REMARK    2  A    between atoms: CA_2  and  C_3
REMARK    3  A    between atoms: CA_2  and  CB_5
REMARK    4  A    between atoms: C_3  and  OXT_12
REMARK    5  A    between atoms: CB_5  and  CG_6
REMARK                            x       y       z     vdW  Elec       q    Type
REMARK                         _______ _______ _______ _____ _____    ______ ____
ROOT
ATOM      1  CA  PHE A   1      38.223   2.336   5.050  0.00  0.00    +0.165 C 
ENDROOT
BRANCH   1   2
ATOM      2  N   PHE A   1      39.234   1.595   4.291  0.00  0.00    -0.318 NA
ATOM      3  H1  PHE A   1      39.687   2.231   3.596  0.00  0.00    +0.119 HD
ATOM      4  H2  PHE A   1      38.758   0.832   3.755  0.00  0.00    +0.119 HD
ENDBRANCH   1   2
BRANCH   1   5
ATOM      5  C   PHE A   1      37.768   3.552   4.289  0.00  0.00    +0.322 C 
ATOM      6  O   PHE A   1      38.464   4.604   4.291  0.00  0.00    -0.249 OA
BRANCH   5   7
ATOM      7  OXT PHE A   1      36.571   3.516   3.580  0.00  0.00    -0.480 OA
ATOM      8  HXT PHE A   1      36.308   4.277   2.965  0.00  0.00    +0.295 HD
ENDBRANCH   5   7
ENDBRANCH   1   5
BRANCH   1   9
ATOM      9  CB  PHE A   1      38.769   2.740   6.432  0.00  0.00    +0.065 C 
BRANCH   9  10
ATOM     10  CG  PHE A   1      37.869   2.255   7.540  0.00  0.00    -0.045 A 
ATOM     11  CD1 PHE A   1      37.083   1.104   7.361  0.00  0.00    +0.004 A 
ATOM     12  CD2 PHE A   1      37.843   2.920   8.778  0.00  0.00    +0.004 A 
ATOM     13  CE1 PHE A   1      36.269   0.638   8.399  0.00  0.00    +0.000 A 
ATOM     14  CE2 PHE A   1      37.027   2.451   9.813  0.00  0.00    +0.000 A 
ATOM     15  CZ  PHE A   1      36.241   1.312   9.623  0.00  0.00    +0.000 A 
ENDBRANCH   9  10
ENDBRANCH   1   9
TORSDOF 5
ENDMDL
