MODEL 15
REMARK VINA RESULT:    -4.583     11.741     12.882
REMARK INTER + INTRA:          -5.824
REMARK INTER:                  -5.627
REMARK INTRA:                  -0.198
REMARK UNBOUND:                -0.169
REMARK  Name = PHE
REMARK  5 active torsions:
REMARK  status: ('A' for Active; 'I' for Inactive)
REMARK    1  A    between atoms: N_1  and  CA_2
REMARK    2  A    between atoms: CA_2  and  C_3
REMARK    3  A    between atoms: CA_2  and  CB_5
REMARK    4  A    between atoms: C_3  and  OXT_12
REMARK    5  A    between atoms: CB_5  and  CG_6
REMARK                            x       y       z     vdW  Elec       q    Type
REMARK                         _______ _______ _______ _____ _____    ______ ____
ROOT
ATOM      1  CA  PHE A   1      28.550  -4.922  12.783  0.00  0.00    +0.165 C 
ENDROOT
BRANCH   1   2
ATOM      2  N   PHE A   1      29.724  -4.295  13.397  0.00  0.00    -0.318 NA
ATOM      3  H1  PHE A   1      30.445  -5.025  13.603  0.00  0.00    +0.119 HD
ATOM      4  H2  PHE A   1      29.439  -3.869  14.309  0.00  0.00    +0.119 HD
ENDBRANCH   1   2
BRANCH   1   5
ATOM      5  C   PHE A   1      27.344  -4.029  12.900  0.00  0.00    +0.322 C 
ATOM      6  O   PHE A   1      26.188  -4.525  12.986  0.00  0.00    -0.249 OA
BRANCH   5   7
ATOM      7  OXT PHE A   1      27.507  -2.647  12.910  0.00  0.00    -0.480 OA
ATOM      8  HXT PHE A   1      27.774  -2.161  13.757  0.00  0.00    +0.295 HD
ENDBRANCH   5   7
ENDBRANCH   1   5
BRANCH   1   9
ATOM      9  CB  PHE A   1      28.269  -6.293  13.425  0.00  0.00    +0.065 C 
BRANCH   9  10
ATOM     10  CG  PHE A   1      28.690  -7.421  12.518  0.00  0.00    -0.045 A 
ATOM     11  CD1 PHE A   1      29.375  -8.531  13.040  0.00  0.00    +0.004 A 
ATOM     12  CD2 PHE A   1      28.362  -7.396  11.152  0.00  0.00    +0.004 A 
ATOM     13  CE1 PHE A   1      29.742  -9.590  12.204  0.00  0.00    +0.000 A 
ATOM     14  CE2 PHE A   1      28.731  -8.457  10.319  0.00  0.00    +0.000 A 
ATOM     15  CZ  PHE A   1      29.421  -9.552  10.845  0.00  0.00    +0.000 A 
ENDBRANCH   9  10
ENDBRANCH   1   9
TORSDOF 5
ENDMDL
