MODEL 16
REMARK VINA RESULT:    -4.502     11.549     12.849
REMARK INTER + INTRA:          -5.724
REMARK INTER:                  -5.573
REMARK INTRA:                  -0.152
REMARK UNBOUND:                -0.169
REMARK  Name = PHE
REMARK  5 active torsions:
REMARK  status: ('A' for Active; 'I' for Inactive)
REMARK    1  A    between atoms: N_1  and  CA_2
REMARK    2  A    between atoms: CA_2  and  C_3
REMARK    3  A    between atoms: CA_2  and  CB_5
REMARK    4  A    between atoms: C_3  and  OXT_12
REMARK    5  A    between atoms: CB_5  and  CG_6
REMARK                            x       y       z     vdW  Elec       q    Type
REMARK                         _______ _______ _______ _____ _____    ______ ____
ROOT
ATOM      1  CA  PHE A   1      29.323  -6.027  12.041  0.00  0.00    +0.165 C 
ENDROOT
BRANCH   1   2
ATOM      2  N   PHE A   1      30.767  -5.983  11.793  0.00  0.00    -0.318 NA
ATOM      3  H1  PHE A   1      31.278  -5.929  12.705  0.00  0.00    +0.119 HD
ATOM      4  H2  PHE A   1      30.990  -5.113  11.256  0.00  0.00    +0.119 HD
ENDBRANCH   1   2
BRANCH   1   5
ATOM      5  C   PHE A   1      28.903  -4.902  12.950  0.00  0.00    +0.322 C 
ATOM      6  O   PHE A   1      27.684  -4.604  13.074  0.00  0.00    -0.249 OA
BRANCH   5   7
ATOM      7  OXT PHE A   1      29.866  -4.186  13.654  0.00  0.00    -0.480 OA
ATOM      8  HXT PHE A   1      30.842  -4.452  13.617  0.00  0.00    +0.295 HD
ENDBRANCH   5   7
ENDBRANCH   1   5
BRANCH   1   9
ATOM      9  CB  PHE A   1      28.916  -7.384  12.642  0.00  0.00    +0.065 C 
BRANCH   9  10
ATOM     10  CG  PHE A   1      29.271  -8.521  11.717  0.00  0.00    -0.045 A 
ATOM     11  CD1 PHE A   1      30.111  -9.557  12.160  0.00  0.00    +0.004 A 
ATOM     12  CD2 PHE A   1      28.728  -8.582  10.423  0.00  0.00    +0.004 A 
ATOM     13  CE1 PHE A   1      30.418 -10.626  11.312  0.00  0.00    +0.000 A 
ATOM     14  CE2 PHE A   1      29.038  -9.653   9.578  0.00  0.00    +0.000 A 
ATOM     15  CZ  PHE A   1      29.883 -10.673  10.022  0.00  0.00    +0.000 A 
ENDBRANCH   9  10
ENDBRANCH   1   9
TORSDOF 5
ENDMDL
