MODEL 4
REMARK VINA RESULT:    -4.993      3.708      5.038
REMARK INTER + INTRA:          -6.330
REMARK INTER:                  -6.129
REMARK INTRA:                  -0.200
REMARK UNBOUND:                -0.169
REMARK  Name = PHE
REMARK  5 active torsions:
REMARK  status: ('A' for Active; 'I' for Inactive)
REMARK    1  A    between atoms: N_1  and  CA_2
REMARK    2  A    between atoms: CA_2  and  C_3
REMARK    3  A    between atoms: CA_2  and  CB_5
REMARK    4  A    between atoms: C_3  and  OXT_12
REMARK    5  A    between atoms: CB_5  and  CG_6
REMARK                            x       y       z     vdW  Elec       q    Type
REMARK                         _______ _______ _______ _____ _____    ______ ____
ROOT
ATOM      1  CA  PHE A   1      37.153   2.073   8.895  0.00  0.00    +0.165 C 
ENDROOT
BRANCH   1   2
ATOM      2  N   PHE A   1      37.428   3.192   9.800  0.00  0.00    -0.318 NA
ATOM      3  H1  PHE A   1      36.642   3.293  10.483  0.00  0.00    +0.119 HD
ATOM      4  H2  PHE A   1      37.473   4.075   9.240  0.00  0.00    +0.119 HD
ENDBRANCH   1   2
BRANCH   1   5
ATOM      5  C   PHE A   1      36.967   0.795   9.667  0.00  0.00    +0.322 C 
ATOM      6  O   PHE A   1      36.832   0.819  10.921  0.00  0.00    -0.249 OA
BRANCH   5   7
ATOM      7  OXT PHE A   1      36.948  -0.423   8.993  0.00  0.00    -0.480 OA
ATOM      8  HXT PHE A   1      36.433  -0.530   8.127  0.00  0.00    +0.295 HD
ENDBRANCH   5   7
ENDBRANCH   1   5
BRANCH   1   9
ATOM      9  CB  PHE A   1      38.285   1.919   7.863  0.00  0.00    +0.065 C 
BRANCH   9  10
ATOM     10  CG  PHE A   1      37.779   2.133   6.458  0.00  0.00    -0.045 A 
ATOM     11  CD1 PHE A   1      38.430   3.036   5.601  0.00  0.00    +0.004 A 
ATOM     12  CD2 PHE A   1      36.682   1.397   5.977  0.00  0.00    +0.004 A 
ATOM     13  CE1 PHE A   1      37.979   3.214   4.290  0.00  0.00    +0.000 A 
ATOM     14  CE2 PHE A   1      36.234   1.579   4.665  0.00  0.00    +0.000 A 
ATOM     15  CZ  PHE A   1      36.880   2.487   3.823  0.00  0.00    +0.000 A 
ENDBRANCH   9  10
ENDBRANCH   1   9
TORSDOF 5
ENDMDL
