MODEL 1
REMARK VINA RESULT:    -7.278      0.000      0.000
REMARK INTER + INTRA:         -12.238
REMARK INTER:                 -10.894
REMARK INTRA:                  -1.343
REMARK UNBOUND:                -1.343
REMARK  Name = UDP
REMARK  11 active torsions:
REMARK  status: ('A' for Active; 'I' for Inactive)
REMARK    1  A    between atoms: N_1  and  C_9
REMARK    2  A    between atoms: C_10  and  O_11
REMARK    3  A    between atoms: C_12  and  O_15
REMARK    4  A    between atoms: C_13  and  C_16
REMARK    5  A    between atoms: C_16  and  O_17
REMARK    6  A    between atoms: O_17  and  P_18
REMARK    7  A    between atoms: P_18  and  O_20
REMARK    8  A    between atoms: P_18  and  O_21
REMARK    9  A    between atoms: O_21  and  P_22
REMARK   10  A    between atoms: P_22  and  O_24
REMARK   11  A    between atoms: P_22  and  O_25
REMARK                            x       y       z     vdW  Elec       q    Type
REMARK                         _______ _______ _______ _____ _____    ______ ____
ROOT
ATOM      1  C   UNL     1      58.213  19.028  -3.729  0.00  0.00    +0.255 C 
ATOM      2  C   UNL     1      58.337  18.711  -2.228  0.00  0.00    +0.195 C 
ATOM      3  C   UNL     1      58.172  20.064  -1.560  0.00  0.00    +0.178 C 
ATOM      4  C   UNL     1      57.525  20.901  -2.656  0.00  0.00    +0.178 C 
ATOM      5  O   UNL     1      57.977  20.411  -3.896  0.00  0.00    -0.346 OA
ENDROOT
BRANCH   1   6
ATOM      6  N   UNL     1      59.431  18.622  -4.460  0.00  0.00    -0.271 N 
ATOM      7  C   UNL     1      59.493  17.446  -5.171  0.00  0.00    +0.331 A 
ATOM      8  N   UNL     1      60.626  17.112  -5.850  0.00  0.00    -0.275 N 
ATOM      9  C   UNL     1      61.710  17.931  -5.855  0.00  0.00    +0.254 A 
ATOM     10  C   UNL     1      61.669  19.134  -5.159  0.00  0.00    +0.088 A 
ATOM     11  C   UNL     1      60.508  19.467  -4.467  0.00  0.00    +0.098 A 
ATOM     12  O   UNL     1      58.503  16.665  -5.210  0.00  0.00    -0.246 OA
ATOM     13  O   UNL     1      62.748  17.603  -6.489  0.00  0.00    -0.268 OA
ATOM     14  H   UNL     1      60.661  16.212  -6.382  0.00  0.00    +0.173 HD
ENDBRANCH   1   6
BRANCH   2  15
ATOM     15  O   UNL     1      57.361  17.781  -1.816  0.00  0.00    -0.385 OA
ATOM     16  H   UNL     1      57.689  17.334  -0.991  0.00  0.00    +0.210 HD
ENDBRANCH   2  15
BRANCH   3  17
ATOM     17  O   UNL     1      57.354  20.013  -0.419  0.00  0.00    -0.386 OA
ATOM     18  H   UNL     1      57.188  19.050  -0.239  0.00  0.00    +0.210 HD
ENDBRANCH   3  17
BRANCH   4  19
ATOM     19  C   UNL     1      57.871  22.386  -2.522  0.00  0.00    +0.206 C 
BRANCH  19  20
ATOM     20  O   UNL     1      58.310  22.639  -1.208  0.00  0.00    -0.284 OA
BRANCH  20  21
ATOM     21  P   UNL     1      57.842  24.223  -0.787  0.00  0.00    +0.483 P 
ATOM     22  O   UNL     1      58.973  24.860  -0.009  0.00  0.00    -0.227 OA
BRANCH  21  23
ATOM     23  O   UNL     1      57.562  25.120  -2.198  0.00  0.00    -0.302 OA
ATOM     24  H   UNL     1      56.712  25.600  -2.028  0.00  0.00    +0.222 HD
ENDBRANCH  21  23
BRANCH  21  25
ATOM     25  O   UNL     1      56.449  24.150   0.191  0.00  0.00    -0.186 OA
BRANCH  25  26
ATOM     26  P   UNL     1      56.096  25.732   0.708  0.00  0.00    +0.481 P 
ATOM     27  O   UNL     1      56.331  25.816   2.199  0.00  0.00    -0.227 OA
BRANCH  26  28
ATOM     28  O   UNL     1      57.089  26.862  -0.069  0.00  0.00    -0.302 OA
ATOM     29  H   UNL     1      57.499  27.387   0.666  0.00  0.00    +0.222 HD
ENDBRANCH  26  28
BRANCH  26  30
ATOM     30  O   UNL     1      54.471  26.093   0.394  0.00  0.00    -0.302 OA
ATOM     31  H   UNL     1      53.970  25.302   0.716  0.00  0.00    +0.222 HD
ENDBRANCH  26  30
ENDBRANCH  25  26
ENDBRANCH  21  25
ENDBRANCH  20  21
ENDBRANCH  19  20
ENDBRANCH   4  19
TORSDOF 11
ENDMDL
MODEL 2
REMARK VINA RESULT:    -7.213      6.096      7.882
REMARK INTER + INTRA:         -12.141
REMARK INTER:                 -10.643
REMARK INTRA:                  -1.498
REMARK UNBOUND:                -1.343
REMARK  Name = UDP
REMARK  11 active torsions:
REMARK  status: ('A' for Active; 'I' for Inactive)
REMARK    1  A    between atoms: N_1  and  C_9
REMARK    2  A    between atoms: C_10  and  O_11
REMARK    3  A    between atoms: C_12  and  O_15
REMARK    4  A    between atoms: C_13  and  C_16
REMARK    5  A    between atoms: C_16  and  O_17
REMARK    6  A    between atoms: O_17  and  P_18
REMARK    7  A    between atoms: P_18  and  O_20
REMARK    8  A    between atoms: P_18  and  O_21
REMARK    9  A    between atoms: O_21  and  P_22
REMARK   10  A    between atoms: P_22  and  O_24
REMARK   11  A    between atoms: P_22  and  O_25
REMARK                            x       y       z     vdW  Elec       q    Type
REMARK                         _______ _______ _______ _____ _____    ______ ____
ROOT
ATOM      1  C   UNL     1      58.111  18.566  -7.630  0.00  0.00    +0.255 C 
ATOM      2  C   UNL     1      57.856  17.076  -7.338  0.00  0.00    +0.195 C 
ATOM      3  C   UNL     1      56.452  17.056  -6.762  0.00  0.00    +0.178 C 
ATOM      4  C   UNL     1      55.891  18.402  -7.205  0.00  0.00    +0.178 C 
ATOM      5  O   UNL     1      56.963  19.312  -7.280  0.00  0.00    -0.346 OA
ENDROOT
BRANCH   1   6
ATOM      6  N   UNL     1      59.290  19.058  -6.889  0.00  0.00    -0.271 N 
ATOM      7  C   UNL     1      60.512  19.228  -7.499  0.00  0.00    +0.331 A 
ATOM      8  N   UNL     1      61.574  19.703  -6.790  0.00  0.00    -0.275 N 
ATOM      9  C   UNL     1      61.452  20.033  -5.478  0.00  0.00    +0.254 A 
ATOM     10  C   UNL     1      60.224  19.889  -4.840  0.00  0.00    +0.088 A 
ATOM     11  C   UNL     1      59.145  19.401  -5.572  0.00  0.00    +0.098 A 
ATOM     12  O   UNL     1      60.665  18.952  -8.720  0.00  0.00    -0.246 OA
ATOM     13  O   UNL     1      62.446  20.470  -4.840  0.00  0.00    -0.268 OA
ATOM     14  H   UNL     1      62.498  19.821  -7.264  0.00  0.00    +0.173 HD
ENDBRANCH   1   6
BRANCH   2  15
ATOM     15  O   UNL     1      57.973  16.296  -8.507  0.00  0.00    -0.385 OA
ATOM     16  H   UNL     1      58.558  16.782  -9.146  0.00  0.00    +0.210 HD
ENDBRANCH   2  15
BRANCH   3  17
ATOM     17  O   UNL     1      55.673  16.000  -7.262  0.00  0.00    -0.386 OA
ATOM     18  H   UNL     1      54.739  16.336  -7.299  0.00  0.00    +0.210 HD
ENDBRANCH   3  17
BRANCH   4  19
ATOM     19  C   UNL     1      54.827  18.925  -6.237  0.00  0.00    +0.206 C 
BRANCH  19  20
ATOM     20  O   UNL     1      53.838  17.938  -6.064  0.00  0.00    -0.284 OA
BRANCH  20  21
ATOM     21  P   UNL     1      52.370  18.542  -6.685  0.00  0.00    +0.483 P 
ATOM     22  O   UNL     1      51.264  18.189  -5.716  0.00  0.00    -0.227 OA
BRANCH  21  23
ATOM     23  O   UNL     1      52.471  20.228  -6.826  0.00  0.00    -0.302 OA
ATOM     24  H   UNL     1      52.689  20.546  -5.913  0.00  0.00    +0.222 HD
ENDBRANCH  21  23
BRANCH  21  25
ATOM     25  O   UNL     1      52.060  17.810  -8.192  0.00  0.00    -0.186 OA
BRANCH  25  26
ATOM     26  P   UNL     1      51.865  19.050  -9.341  0.00  0.00    +0.481 P 
ATOM     27  O   UNL     1      51.602  18.420 -10.689  0.00  0.00    -0.227 OA
BRANCH  26  28
ATOM     28  O   UNL     1      50.559  20.051  -8.938  0.00  0.00    -0.302 OA
ATOM     29  H   UNL     1      50.174  19.647  -8.119  0.00  0.00    +0.222 HD
ENDBRANCH  26  28
BRANCH  26  30
ATOM     30  O   UNL     1      53.280  19.974  -9.439  0.00  0.00    -0.302 OA
ATOM     31  H   UNL     1      53.296  20.502  -8.602  0.00  0.00    +0.222 HD
ENDBRANCH  26  30
ENDBRANCH  25  26
ENDBRANCH  21  25
ENDBRANCH  20  21
ENDBRANCH  19  20
ENDBRANCH   4  19
TORSDOF 11
ENDMDL
MODEL 3
REMARK VINA RESULT:    -7.186      5.943      7.749
REMARK INTER + INTRA:         -12.100
REMARK INTER:                 -10.288
REMARK INTRA:                  -1.812
REMARK UNBOUND:                -1.343
REMARK  Name = UDP
REMARK  11 active torsions:
REMARK  status: ('A' for Active; 'I' for Inactive)
REMARK    1  A    between atoms: N_1  and  C_9
REMARK    2  A    between atoms: C_10  and  O_11
REMARK    3  A    between atoms: C_12  and  O_15
REMARK    4  A    between atoms: C_13  and  C_16
REMARK    5  A    between atoms: C_16  and  O_17
REMARK    6  A    between atoms: O_17  and  P_18
REMARK    7  A    between atoms: P_18  and  O_20
REMARK    8  A    between atoms: P_18  and  O_21
REMARK    9  A    between atoms: O_21  and  P_22
REMARK   10  A    between atoms: P_22  and  O_24
REMARK   11  A    between atoms: P_22  and  O_25
REMARK                            x       y       z     vdW  Elec       q    Type
REMARK                         _______ _______ _______ _____ _____    ______ ____
ROOT
ATOM      1  C   UNL     1      56.691  24.766   0.753  0.00  0.00    +0.255 C 
ATOM      2  C   UNL     1      57.964  24.453  -0.054  0.00  0.00    +0.195 C 
ATOM      3  C   UNL     1      57.504  24.531  -1.498  0.00  0.00    +0.178 C 
ATOM      4  C   UNL     1      56.200  25.312  -1.391  0.00  0.00    +0.178 C 
ATOM      5  O   UNL     1      55.625  25.020  -0.139  0.00  0.00    -0.346 OA
ENDROOT
BRANCH   1   6
ATOM      6  N   UNL     1      56.348  23.651   1.659  0.00  0.00    -0.271 N 
ATOM      7  C   UNL     1      56.019  23.862   2.978  0.00  0.00    +0.331 A 
ATOM      8  N   UNL     1      55.689  22.813   3.781  0.00  0.00    -0.275 N 
ATOM      9  C   UNL     1      55.663  21.542   3.302  0.00  0.00    +0.254 A 
ATOM     10  C   UNL     1      55.973  21.300   1.968  0.00  0.00    +0.088 A 
ATOM     11  C   UNL     1      56.311  22.379   1.155  0.00  0.00    +0.098 A 
ATOM     12  O   UNL     1      56.012  25.028   3.460  0.00  0.00    -0.246 OA
ATOM     13  O   UNL     1      55.355  20.585   4.061  0.00  0.00    -0.268 OA
ATOM     14  H   UNL     1      55.446  22.987   4.784  0.00  0.00    +0.173 HD
ENDBRANCH   1   6
BRANCH   2  15
ATOM     15  O   UNL     1      58.995  25.369   0.237  0.00  0.00    -0.385 OA
ATOM     16  H   UNL     1      58.715  26.264  -0.091  0.00  0.00    +0.210 HD
ENDBRANCH   2  15
BRANCH   3  17
ATOM     17  O   UNL     1      58.421  25.198  -2.327  0.00  0.00    -0.386 OA
ATOM     18  H   UNL     1      57.894  25.573  -3.080  0.00  0.00    +0.210 HD
ENDBRANCH   3  17
BRANCH   4  19
ATOM     19  C   UNL     1      55.222  24.950  -2.513  0.00  0.00    +0.206 C 
BRANCH  19  20
ATOM     20  O   UNL     1      53.997  25.606  -2.283  0.00  0.00    -0.284 OA
BRANCH  20  21
ATOM     21  P   UNL     1      52.775  24.425  -2.166  0.00  0.00    +0.483 P 
ATOM     22  O   UNL     1      52.610  23.775  -3.522  0.00  0.00    -0.227 OA
BRANCH  21  23
ATOM     23  O   UNL     1      53.239  23.248  -1.037  0.00  0.00    -0.302 OA
ATOM     24  H   UNL     1      53.188  22.390  -1.530  0.00  0.00    +0.222 HD
ENDBRANCH  21  23
BRANCH  21  25
ATOM     25  O   UNL     1      51.315  25.178  -1.714  0.00  0.00    -0.186 OA
BRANCH  25  26
ATOM     26  P   UNL     1      51.615  26.089  -0.309  0.00  0.00    +0.481 P 
ATOM     27  O   UNL     1      51.860  27.526  -0.709  0.00  0.00    -0.227 OA
BRANCH  26  28
ATOM     28  O   UNL     1      50.291  26.032   0.746  0.00  0.00    -0.302 OA
ATOM     29  H   UNL     1      49.625  26.651   0.351  0.00  0.00    +0.222 HD
ENDBRANCH  26  28
BRANCH  26  30
ATOM     30  O   UNL     1      52.994  25.501   0.478  0.00  0.00    -0.302 OA
ATOM     31  H   UNL     1      52.644  24.942   1.216  0.00  0.00    +0.222 HD
ENDBRANCH  26  30
ENDBRANCH  25  26
ENDBRANCH  21  25
ENDBRANCH  20  21
ENDBRANCH  19  20
ENDBRANCH   4  19
TORSDOF 11
ENDMDL
MODEL 4
REMARK VINA RESULT:    -7.141      5.923      7.968
REMARK INTER + INTRA:         -12.033
REMARK INTER:                 -10.813
REMARK INTRA:                  -1.220
REMARK UNBOUND:                -1.343
REMARK  Name = UDP
REMARK  11 active torsions:
REMARK  status: ('A' for Active; 'I' for Inactive)
REMARK    1  A    between atoms: N_1  and  C_9
REMARK    2  A    between atoms: C_10  and  O_11
REMARK    3  A    between atoms: C_12  and  O_15
REMARK    4  A    between atoms: C_13  and  C_16
REMARK    5  A    between atoms: C_16  and  O_17
REMARK    6  A    between atoms: O_17  and  P_18
REMARK    7  A    between atoms: P_18  and  O_20
REMARK    8  A    between atoms: P_18  and  O_21
REMARK    9  A    between atoms: O_21  and  P_22
REMARK   10  A    between atoms: P_22  and  O_24
REMARK   11  A    between atoms: P_22  and  O_25
REMARK                            x       y       z     vdW  Elec       q    Type
REMARK                         _______ _______ _______ _____ _____    ______ ____
ROOT
ATOM      1  C   UNL     1      58.144  18.600  -7.465  0.00  0.00    +0.255 C 
ATOM      2  C   UNL     1      57.901  17.092  -7.280  0.00  0.00    +0.195 C 
ATOM      3  C   UNL     1      56.479  17.018  -6.755  0.00  0.00    +0.178 C 
ATOM      4  C   UNL     1      55.914  18.383  -7.128  0.00  0.00    +0.178 C 
ATOM      5  O   UNL     1      56.975  19.308  -7.106  0.00  0.00    -0.346 OA
ENDROOT
BRANCH   1   6
ATOM      6  N   UNL     1      59.291  19.057  -6.652  0.00  0.00    -0.271 N 
ATOM      7  C   UNL     1      60.547  19.211  -7.192  0.00  0.00    +0.331 A 
ATOM      8  N   UNL     1      61.578  19.653  -6.419  0.00  0.00    -0.275 N 
ATOM      9  C   UNL     1      61.391  19.965  -5.110  0.00  0.00    +0.254 A 
ATOM     10  C   UNL     1      60.128  19.836  -4.542  0.00  0.00    +0.088 A 
ATOM     11  C   UNL     1      59.081  19.382  -5.340  0.00  0.00    +0.098 A 
ATOM     12  O   UNL     1      60.761  18.951  -8.408  0.00  0.00    -0.246 OA
ATOM     13  O   UNL     1      62.358  20.372  -4.412  0.00  0.00    -0.268 OA
ATOM     14  H   UNL     1      62.529  19.760  -6.840  0.00  0.00    +0.173 HD
ENDBRANCH   1   6
BRANCH   2  15
ATOM     15  O   UNL     1      58.069  16.392  -8.492  0.00  0.00    -0.385 OA
ATOM     16  H   UNL     1      58.790  15.721  -8.365  0.00  0.00    +0.210 HD
ENDBRANCH   2  15
BRANCH   3  17
ATOM     17  O   UNL     1      55.732  15.987  -7.349  0.00  0.00    -0.386 OA
ATOM     18  H   UNL     1      56.277  15.649  -8.107  0.00  0.00    +0.210 HD
ENDBRANCH   3  17
BRANCH   4  19
ATOM     19  C   UNL     1      54.811  18.828  -6.164  0.00  0.00    +0.206 C 
BRANCH  19  20
ATOM     20  O   UNL     1      54.233  20.018  -6.647  0.00  0.00    -0.284 OA
BRANCH  20  21
ATOM     21  P   UNL     1      52.962  19.602  -7.703  0.00  0.00    +0.483 P 
ATOM     22  O   UNL     1      51.726  20.368  -7.283  0.00  0.00    -0.227 OA
BRANCH  21  23
ATOM     23  O   UNL     1      53.379  20.044  -9.286  0.00  0.00    -0.302 OA
ATOM     24  H   UNL     1      53.206  21.018  -9.331  0.00  0.00    +0.222 HD
ENDBRANCH  21  23
BRANCH  21  25
ATOM     25  O   UNL     1      52.663  17.930  -7.583  0.00  0.00    -0.186 OA
BRANCH  25  26
ATOM     26  P   UNL     1      51.245  17.592  -8.461  0.00  0.00    +0.481 P 
ATOM     27  O   UNL     1      50.103  17.424  -7.486  0.00  0.00    -0.227 OA
BRANCH  26  28
ATOM     28  O   UNL     1      50.875  18.854  -9.527  0.00  0.00    -0.302 OA
ATOM     29  H   UNL     1      49.924  19.067  -9.347  0.00  0.00    +0.222 HD
ENDBRANCH  26  28
BRANCH  26  30
ATOM     30  O   UNL     1      51.434  16.151  -9.330  0.00  0.00    -0.302 OA
ATOM     31  H   UNL     1      51.290  16.406 -10.275  0.00  0.00    +0.222 HD
ENDBRANCH  26  30
ENDBRANCH  25  26
ENDBRANCH  21  25
ENDBRANCH  20  21
ENDBRANCH  19  20
ENDBRANCH   4  19
TORSDOF 11
ENDMDL
MODEL 5
REMARK VINA RESULT:    -7.071      2.869      4.634
REMARK INTER + INTRA:         -11.928
REMARK INTER:                 -10.057
REMARK INTRA:                  -1.872
REMARK UNBOUND:                -1.343
REMARK  Name = UDP
REMARK  11 active torsions:
REMARK  status: ('A' for Active; 'I' for Inactive)
REMARK    1  A    between atoms: N_1  and  C_9
REMARK    2  A    between atoms: C_10  and  O_11
REMARK    3  A    between atoms: C_12  and  O_15
REMARK    4  A    between atoms: C_13  and  C_16
REMARK    5  A    between atoms: C_16  and  O_17
REMARK    6  A    between atoms: O_17  and  P_18
REMARK    7  A    between atoms: P_18  and  O_20
REMARK    8  A    between atoms: P_18  and  O_21
REMARK    9  A    between atoms: O_21  and  P_22
REMARK   10  A    between atoms: P_22  and  O_24
REMARK   11  A    between atoms: P_22  and  O_25
REMARK                            x       y       z     vdW  Elec       q    Type
REMARK                         _______ _______ _______ _____ _____    ______ ____
ROOT
ATOM      1  C   UNL     1      57.627  17.902  -7.183  0.00  0.00    +0.255 C 
ATOM      2  C   UNL     1      57.036  16.555  -6.728  0.00  0.00    +0.195 C 
ATOM      3  C   UNL     1      56.035  16.944  -5.656  0.00  0.00    +0.178 C 
ATOM      4  C   UNL     1      55.815  18.427  -5.927  0.00  0.00    +0.178 C 
ATOM      5  O   UNL     1      57.008  18.949  -6.463  0.00  0.00    -0.346 OA
ENDROOT
BRANCH   1   6
ATOM      6  N   UNL     1      59.090  17.935  -6.983  0.00  0.00    -0.271 N 
ATOM      7  C   UNL     1      59.937  18.500  -7.909  0.00  0.00    +0.331 A 
ATOM      8  N   UNL     1      61.280  18.531  -7.684  0.00  0.00    -0.275 N 
ATOM      9  C   UNL     1      61.813  18.022  -6.543  0.00  0.00    +0.254 A 
ATOM     10  C   UNL     1      60.980  17.461  -5.581  0.00  0.00    +0.088 A 
ATOM     11  C   UNL     1      59.608  17.433  -5.821  0.00  0.00    +0.098 A 
ATOM     12  O   UNL     1      59.482  19.001  -8.974  0.00  0.00    -0.246 OA
ATOM     13  O   UNL     1      63.058  18.061  -6.354  0.00  0.00    -0.268 OA
ATOM     14  H   UNL     1      61.912  18.959  -8.399  0.00  0.00    +0.173 HD
ENDBRANCH   1   6
BRANCH   2  15
ATOM     15  O   UNL     1      56.439  15.867  -7.804  0.00  0.00    -0.385 OA
ATOM     16  H   UNL     1      55.761  15.242  -7.432  0.00  0.00    +0.210 HD
ENDBRANCH   2  15
BRANCH   3  17
ATOM     17  O   UNL     1      54.828  16.232  -5.754  0.00  0.00    -0.386 OA
ATOM     18  H   UNL     1      54.317  16.651  -6.495  0.00  0.00    +0.210 HD
ENDBRANCH   3  17
BRANCH   4  19
ATOM     19  C   UNL     1      55.434  19.191  -4.656  0.00  0.00    +0.206 C 
BRANCH  19  20
ATOM     20  O   UNL     1      55.901  18.479  -3.535  0.00  0.00    -0.284 OA
BRANCH  20  21
ATOM     21  P   UNL     1      57.134  19.395  -2.798  0.00  0.00    +0.483 P 
ATOM     22  O   UNL     1      57.969  18.467  -1.943  0.00  0.00    -0.227 OA
BRANCH  21  23
ATOM     23  O   UNL     1      58.116  20.082  -3.997  0.00  0.00    -0.302 OA
ATOM     24  H   UNL     1      58.927  20.387  -3.517  0.00  0.00    +0.222 HD
ENDBRANCH  21  23
BRANCH  21  25
ATOM     25  O   UNL     1      56.426  20.592  -1.814  0.00  0.00    -0.186 OA
BRANCH  25  26
ATOM     26  P   UNL     1      57.597  21.794  -1.534  0.00  0.00    +0.481 P 
ATOM     27  O   UNL     1      57.782  22.592  -2.804  0.00  0.00    -0.227 OA
BRANCH  26  28
ATOM     28  O   UNL     1      57.111  22.840  -0.294  0.00  0.00    -0.302 OA
ATOM     29  H   UNL     1      56.176  22.576  -0.092  0.00  0.00    +0.222 HD
ENDBRANCH  26  28
BRANCH  26  30
ATOM     30  O   UNL     1      59.075  21.076  -1.124  0.00  0.00    -0.302 OA
ATOM     31  H   UNL     1      58.925  20.684  -0.227  0.00  0.00    +0.222 HD
ENDBRANCH  26  30
ENDBRANCH  25  26
ENDBRANCH  21  25
ENDBRANCH  20  21
ENDBRANCH  19  20
ENDBRANCH   4  19
TORSDOF 11
ENDMDL
MODEL 6
REMARK VINA RESULT:    -7.030      6.276      9.275
REMARK INTER + INTRA:         -11.867
REMARK INTER:                  -9.810
REMARK INTRA:                  -2.057
REMARK UNBOUND:                -1.343
REMARK  Name = UDP
REMARK  11 active torsions:
REMARK  status: ('A' for Active; 'I' for Inactive)
REMARK    1  A    between atoms: N_1  and  C_9
REMARK    2  A    between atoms: C_10  and  O_11
REMARK    3  A    between atoms: C_12  and  O_15
REMARK    4  A    between atoms: C_13  and  C_16
REMARK    5  A    between atoms: C_16  and  O_17
REMARK    6  A    between atoms: O_17  and  P_18
REMARK    7  A    between atoms: P_18  and  O_20
REMARK    8  A    between atoms: P_18  and  O_21
REMARK    9  A    between atoms: O_21  and  P_22
REMARK   10  A    between atoms: P_22  and  O_24
REMARK   11  A    between atoms: P_22  and  O_25
REMARK                            x       y       z     vdW  Elec       q    Type
REMARK                         _______ _______ _______ _____ _____    ______ ____
ROOT
ATOM      1  C   UNL     1      51.536  25.799  -1.467  0.00  0.00    +0.255 C 
ATOM      2  C   UNL     1      52.170  25.872  -0.067  0.00  0.00    +0.195 C 
ATOM      3  C   UNL     1      53.588  25.374  -0.286  0.00  0.00    +0.178 C 
ATOM      4  C   UNL     1      53.761  25.515  -1.794  0.00  0.00    +0.178 C 
ATOM      5  O   UNL     1      52.499  25.333  -2.391  0.00  0.00    -0.346 OA
ENDROOT
BRANCH   1   6
ATOM      6  N   UNL     1      50.352  24.916  -1.469  0.00  0.00    -0.271 N 
ATOM      7  C   UNL     1      49.149  25.314  -0.934  0.00  0.00    +0.331 A 
ATOM      8  N   UNL     1      48.071  24.481  -0.970  0.00  0.00    -0.275 N 
ATOM      9  C   UNL     1      48.152  23.252  -1.543  0.00  0.00    +0.254 A 
ATOM     10  C   UNL     1      49.350  22.830  -2.109  0.00  0.00    +0.088 A 
ATOM     11  C   UNL     1      50.447  23.687  -2.066  0.00  0.00    +0.098 A 
ATOM     12  O   UNL     1      49.025  26.454  -0.408  0.00  0.00    -0.246 OA
ATOM     13  O   UNL     1      47.143  22.497  -1.566  0.00  0.00    -0.268 OA
ATOM     14  H   UNL     1      47.164  24.794  -0.554  0.00  0.00    +0.173 HD
ENDBRANCH   1   6
BRANCH   2  15
ATOM     15  O   UNL     1      52.130  27.184   0.448  0.00  0.00    -0.385 OA
ATOM     16  H   UNL     1      52.013  27.811  -0.313  0.00  0.00    +0.210 HD
ENDBRANCH   2  15
BRANCH   3  17
ATOM     17  O   UNL     1      54.546  26.137   0.402  0.00  0.00    -0.386 OA
ATOM     18  H   UNL     1      54.123  26.406   1.259  0.00  0.00    +0.210 HD
ENDBRANCH   3  17
BRANCH   4  19
ATOM     19  C   UNL     1      54.757  24.496  -2.353  0.00  0.00    +0.206 C 
BRANCH  19  20
ATOM     20  O   UNL     1      55.659  24.130  -1.336  0.00  0.00    -0.284 OA
BRANCH  20  21
ATOM     21  P   UNL     1      57.232  24.139  -1.991  0.00  0.00    +0.483 P 
ATOM     22  O   UNL     1      57.386  22.921  -2.875  0.00  0.00    -0.227 OA
BRANCH  21  23
ATOM     23  O   UNL     1      57.442  25.537  -2.927  0.00  0.00    -0.302 OA
ATOM     24  H   UNL     1      56.683  25.532  -3.563  0.00  0.00    +0.222 HD
ENDBRANCH  21  23
BRANCH  21  25
ATOM     25  O   UNL     1      58.364  24.066  -0.720  0.00  0.00    -0.186 OA
BRANCH  25  26
ATOM     26  P   UNL     1      57.882  25.183   0.469  0.00  0.00    +0.481 P 
ATOM     27  O   UNL     1      59.098  25.588   1.271  0.00  0.00    -0.227 OA
BRANCH  26  28
ATOM     28  O   UNL     1      57.204  26.565  -0.235  0.00  0.00    -0.302 OA
ATOM     29  H   UNL     1      56.285  26.614   0.136  0.00  0.00    +0.222 HD
ENDBRANCH  26  28
BRANCH  26  30
ATOM     30  O   UNL     1      56.757  24.466   1.512  0.00  0.00    -0.302 OA
ATOM     31  H   UNL     1      56.634  25.124   2.242  0.00  0.00    +0.222 HD
ENDBRANCH  26  30
ENDBRANCH  25  26
ENDBRANCH  21  25
ENDBRANCH  20  21
ENDBRANCH  19  20
ENDBRANCH   4  19
TORSDOF 11
ENDMDL
MODEL 7
REMARK VINA RESULT:    -6.964      4.195      7.664
REMARK INTER + INTRA:         -11.768
REMARK INTER:                 -10.265
REMARK INTRA:                  -1.503
REMARK UNBOUND:                -1.343
REMARK  Name = UDP
REMARK  11 active torsions:
REMARK  status: ('A' for Active; 'I' for Inactive)
REMARK    1  A    between atoms: N_1  and  C_9
REMARK    2  A    between atoms: C_10  and  O_11
REMARK    3  A    between atoms: C_12  and  O_15
REMARK    4  A    between atoms: C_13  and  C_16
REMARK    5  A    between atoms: C_16  and  O_17
REMARK    6  A    between atoms: O_17  and  P_18
REMARK    7  A    between atoms: P_18  and  O_20
REMARK    8  A    between atoms: P_18  and  O_21
REMARK    9  A    between atoms: O_21  and  P_22
REMARK   10  A    between atoms: P_22  and  O_24
REMARK   11  A    between atoms: P_22  and  O_25
REMARK                            x       y       z     vdW  Elec       q    Type
REMARK                         _______ _______ _______ _____ _____    ______ ____
ROOT
ATOM      1  C   UNL     1      60.358  20.017  -4.570  0.00  0.00    +0.255 C 
ATOM      2  C   UNL     1      61.582  19.092  -4.444  0.00  0.00    +0.195 C 
ATOM      3  C   UNL     1      61.735  18.506  -5.836  0.00  0.00    +0.178 C 
ATOM      4  C   UNL     1      60.923  19.468  -6.695  0.00  0.00    +0.178 C 
ATOM      5  O   UNL     1      59.879  19.980  -5.899  0.00  0.00    -0.346 OA
ENDROOT
BRANCH   1   6
ATOM      6  N   UNL     1      59.291  19.617  -3.628  0.00  0.00    -0.271 N 
ATOM      7  C   UNL     1      58.473  20.543  -3.023  0.00  0.00    +0.331 A 
ATOM      8  N   UNL     1      57.487  20.138  -2.175  0.00  0.00    -0.275 N 
ATOM      9  C   UNL     1      57.278  18.821  -1.918  0.00  0.00    +0.254 A 
ATOM     10  C   UNL     1      58.077  17.862  -2.530  0.00  0.00    +0.088 A 
ATOM     11  C   UNL     1      59.084  18.285  -3.394  0.00  0.00    +0.098 A 
ATOM     12  O   UNL     1      58.620  21.775  -3.248  0.00  0.00    -0.246 OA
ATOM     13  O   UNL     1      56.360  18.467  -1.131  0.00  0.00    -0.268 OA
ATOM     14  H   UNL     1      56.876  20.853  -1.717  0.00  0.00    +0.173 HD
ENDBRANCH   1   6
BRANCH   2  15
ATOM     15  O   UNL     1      62.725  19.805  -4.029  0.00  0.00    -0.385 OA
ATOM     16  H   UNL     1      62.426  20.568  -3.467  0.00  0.00    +0.210 HD
ENDBRANCH   2  15
BRANCH   3  17
ATOM     17  O   UNL     1      63.072  18.459  -6.264  0.00  0.00    -0.386 OA
ATOM     18  H   UNL     1      63.136  17.693  -6.893  0.00  0.00    +0.210 HD
ENDBRANCH   3  17
BRANCH   4  19
ATOM     19  C   UNL     1      60.346  18.781  -7.935  0.00  0.00    +0.206 C 
BRANCH  19  20
ATOM     20  O   UNL     1      59.851  17.515  -7.571  0.00  0.00    -0.284 OA
BRANCH  20  21
ATOM     21  P   UNL     1      58.164  17.513  -7.812  0.00  0.00    +0.483 P 
ATOM     22  O   UNL     1      57.818  18.647  -8.751  0.00  0.00    -0.227 OA
BRANCH  21  23
ATOM     23  O   UNL     1      57.699  16.043  -8.518  0.00  0.00    -0.302 OA
ATOM     24  H   UNL     1      56.815  15.840  -8.121  0.00  0.00    +0.222 HD
ENDBRANCH  21  23
BRANCH  21  25
ATOM     25  O   UNL     1      57.387  17.757  -6.316  0.00  0.00    -0.186 OA
BRANCH  25  26
ATOM     26  P   UNL     1      55.709  17.742  -6.594  0.00  0.00    +0.481 P 
ATOM     27  O   UNL     1      55.324  16.392  -7.153  0.00  0.00    -0.227 OA
BRANCH  26  28
ATOM     28  O   UNL     1      54.852  18.004  -5.156  0.00  0.00    -0.302 OA
ATOM     29  H   UNL     1      55.283  17.407  -4.492  0.00  0.00    +0.222 HD
ENDBRANCH  26  28
BRANCH  26  30
ATOM     30  O   UNL     1      55.300  18.935  -7.724  0.00  0.00    -0.302 OA
ATOM     31  H   UNL     1      55.777  19.747  -7.417  0.00  0.00    +0.222 HD
ENDBRANCH  26  30
ENDBRANCH  25  26
ENDBRANCH  21  25
ENDBRANCH  20  21
ENDBRANCH  19  20
ENDBRANCH   4  19
TORSDOF 11
ENDMDL
MODEL 8
REMARK VINA RESULT:    -6.917      6.042      8.027
REMARK INTER + INTRA:         -11.697
REMARK INTER:                 -10.217
REMARK INTRA:                  -1.481
REMARK UNBOUND:                -1.343
REMARK  Name = UDP
REMARK  11 active torsions:
REMARK  status: ('A' for Active; 'I' for Inactive)
REMARK    1  A    between atoms: N_1  and  C_9
REMARK    2  A    between atoms: C_10  and  O_11
REMARK    3  A    between atoms: C_12  and  O_15
REMARK    4  A    between atoms: C_13  and  C_16
REMARK    5  A    between atoms: C_16  and  O_17
REMARK    6  A    between atoms: O_17  and  P_18
REMARK    7  A    between atoms: P_18  and  O_20
REMARK    8  A    between atoms: P_18  and  O_21
REMARK    9  A    between atoms: O_21  and  P_22
REMARK   10  A    between atoms: P_22  and  O_24
REMARK   11  A    between atoms: P_22  and  O_25
REMARK                            x       y       z     vdW  Elec       q    Type
REMARK                         _______ _______ _______ _____ _____    ______ ____
ROOT
ATOM      1  C   UNL     1      56.733  24.892   0.804  0.00  0.00    +0.255 C 
ATOM      2  C   UNL     1      57.715  24.382  -0.266  0.00  0.00    +0.195 C 
ATOM      3  C   UNL     1      56.994  24.651  -1.575  0.00  0.00    +0.178 C 
ATOM      4  C   UNL     1      55.938  25.672  -1.170  0.00  0.00    +0.178 C 
ATOM      5  O   UNL     1      55.585  25.419   0.170  0.00  0.00    -0.346 OA
ENDROOT
BRANCH   1   6
ATOM      6  N   UNL     1      56.354  23.811   1.737  0.00  0.00    -0.271 N 
ATOM      7  C   UNL     1      55.993  24.069   3.039  0.00  0.00    +0.331 A 
ATOM      8  N   UNL     1      55.630  23.050   3.867  0.00  0.00    -0.275 N 
ATOM      9  C   UNL     1      55.602  21.765   3.428  0.00  0.00    +0.254 A 
ATOM     10  C   UNL     1      55.944  21.476   2.112  0.00  0.00    +0.088 A 
ATOM     11  C   UNL     1      56.315  22.524   1.273  0.00  0.00    +0.098 A 
ATOM     12  O   UNL     1      55.988  25.251   3.482  0.00  0.00    -0.246 OA
ATOM     13  O   UNL     1      55.263  20.837   4.210  0.00  0.00    -0.268 OA
ATOM     14  H   UNL     1      55.364  23.260   4.856  0.00  0.00    +0.173 HD
ENDBRANCH   1   6
BRANCH   2  15
ATOM     15  O   UNL     1      58.955  25.046  -0.185  0.00  0.00    -0.385 OA
ATOM     16  H   UNL     1      59.378  25.023  -1.083  0.00  0.00    +0.210 HD
ENDBRANCH   2  15
BRANCH   3  17
ATOM     17  O   UNL     1      57.841  25.172  -2.566  0.00  0.00    -0.386 OA
ATOM     18  H   UNL     1      58.404  25.857  -2.120  0.00  0.00    +0.210 HD
ENDBRANCH   3  17
BRANCH   4  19
ATOM     19  C   UNL     1      54.696  25.596  -2.061  0.00  0.00    +0.206 C 
BRANCH  19  20
ATOM     20  O   UNL     1      53.613  26.197  -1.392  0.00  0.00    -0.284 OA
BRANCH  20  21
ATOM     21  P   UNL     1      52.583  24.962  -0.830  0.00  0.00    +0.483 P 
ATOM     22  O   UNL     1      52.990  23.665  -1.494  0.00  0.00    -0.227 OA
BRANCH  21  23
ATOM     23  O   UNL     1      52.757  24.806   0.850  0.00  0.00    -0.302 OA
ATOM     24  H   UNL     1      52.661  23.836   1.026  0.00  0.00    +0.222 HD
ENDBRANCH  21  23
BRANCH  21  25
ATOM     25  O   UNL     1      50.977  25.339  -1.256  0.00  0.00    -0.186 OA
BRANCH  25  26
ATOM     26  P   UNL     1      50.307  26.257   0.010  0.00  0.00    +0.481 P 
ATOM     27  O   UNL     1      49.030  26.899  -0.483  0.00  0.00    -0.227 OA
BRANCH  26  28
ATOM     28  O   UNL     1      49.948  25.280   1.346  0.00  0.00    -0.302 OA
ATOM     29  H   UNL     1      49.755  25.917   2.081  0.00  0.00    +0.222 HD
ENDBRANCH  26  28
BRANCH  26  30
ATOM     30  O   UNL     1      51.385  27.478   0.472  0.00  0.00    -0.302 OA
ATOM     31  H   UNL     1      50.905  28.323   0.284  0.00  0.00    +0.222 HD
ENDBRANCH  26  30
ENDBRANCH  25  26
ENDBRANCH  21  25
ENDBRANCH  20  21
ENDBRANCH  19  20
ENDBRANCH   4  19
TORSDOF 11
ENDMDL
MODEL 9
REMARK VINA RESULT:    -6.897      4.448      6.182
REMARK INTER + INTRA:         -11.667
REMARK INTER:                  -9.829
REMARK INTRA:                  -1.838
REMARK UNBOUND:                -1.343
REMARK  Name = UDP
REMARK  11 active torsions:
REMARK  status: ('A' for Active; 'I' for Inactive)
REMARK    1  A    between atoms: N_1  and  C_9
REMARK    2  A    between atoms: C_10  and  O_11
REMARK    3  A    between atoms: C_12  and  O_15
REMARK    4  A    between atoms: C_13  and  C_16
REMARK    5  A    between atoms: C_16  and  O_17
REMARK    6  A    between atoms: O_17  and  P_18
REMARK    7  A    between atoms: P_18  and  O_20
REMARK    8  A    between atoms: P_18  and  O_21
REMARK    9  A    between atoms: O_21  and  P_22
REMARK   10  A    between atoms: P_22  and  O_24
REMARK   11  A    between atoms: P_22  and  O_25
REMARK                            x       y       z     vdW  Elec       q    Type
REMARK                         _______ _______ _______ _____ _____    ______ ____
ROOT
ATOM      1  C   UNL     1      58.356  18.543  -7.333  0.00  0.00    +0.255 C 
ATOM      2  C   UNL     1      57.869  17.095  -7.141  0.00  0.00    +0.195 C 
ATOM      3  C   UNL     1      56.417  17.255  -6.730  0.00  0.00    +0.178 C 
ATOM      4  C   UNL     1      56.100  18.679  -7.170  0.00  0.00    +0.178 C 
ATOM      5  O   UNL     1      57.287  19.431  -7.081  0.00  0.00    -0.346 OA
ENDROOT
BRANCH   1   6
ATOM      6  N   UNL     1      59.495  18.843  -6.440  0.00  0.00    -0.271 N 
ATOM      7  C   UNL     1      60.736  18.280  -6.633  0.00  0.00    +0.331 A 
ATOM      8  N   UNL     1      61.769  18.594  -5.803  0.00  0.00    -0.275 N 
ATOM      9  C   UNL     1      61.607  19.473  -4.780  0.00  0.00    +0.254 A 
ATOM     10  C   UNL     1      60.368  20.071  -4.572  0.00  0.00    +0.088 A 
ATOM     11  C   UNL     1      59.318  19.743  -5.425  0.00  0.00    +0.098 A 
ATOM     12  O   UNL     1      60.936  17.473  -7.582  0.00  0.00    -0.246 OA
ATOM     13  O   UNL     1      62.575  19.750  -4.023  0.00  0.00    -0.268 OA
ATOM     14  H   UNL     1      62.706  18.155  -5.957  0.00  0.00    +0.173 HD
ENDBRANCH   1   6
BRANCH   2  15
ATOM     15  O   UNL     1      58.017  16.342  -8.324  0.00  0.00    -0.385 OA
ATOM     16  H   UNL     1      58.046  15.381  -8.077  0.00  0.00    +0.210 HD
ENDBRANCH   2  15
BRANCH   3  17
ATOM     17  O   UNL     1      55.567  16.333  -7.363  0.00  0.00    -0.386 OA
ATOM     18  H   UNL     1      56.099  15.917  -8.090  0.00  0.00    +0.210 HD
ENDBRANCH   3  17
BRANCH   4  19
ATOM     19  C   UNL     1      55.010  19.316  -6.305  0.00  0.00    +0.206 C 
BRANCH  19  20
ATOM     20  O   UNL     1      54.767  18.491  -5.190  0.00  0.00    -0.284 OA
BRANCH  20  21
ATOM     21  P   UNL     1      55.464  19.228  -3.821  0.00  0.00    +0.483 P 
ATOM     22  O   UNL     1      55.601  20.709  -4.096  0.00  0.00    -0.227 OA
BRANCH  21  23
ATOM     23  O   UNL     1      54.448  19.001  -2.483  0.00  0.00    -0.302 OA
ATOM     24  H   UNL     1      53.537  19.197  -2.820  0.00  0.00    +0.222 HD
ENDBRANCH  21  23
BRANCH  21  25
ATOM     25  O   UNL     1      57.006  18.555  -3.551  0.00  0.00    -0.186 OA
BRANCH  25  26
ATOM     26  P   UNL     1      56.787  17.020  -2.851  0.00  0.00    +0.481 P 
ATOM     27  O   UNL     1      56.693  17.183  -1.351  0.00  0.00    -0.227 OA
BRANCH  26  28
ATOM     28  O   UNL     1      55.364  16.292  -3.413  0.00  0.00    -0.302 OA
ATOM     29  H   UNL     1      54.955  15.882  -2.609  0.00  0.00    +0.222 HD
ENDBRANCH  26  28
BRANCH  26  30
ATOM     30  O   UNL     1      58.112  16.028  -3.208  0.00  0.00    -0.302 OA
ATOM     31  H   UNL     1      58.162  15.392  -2.450  0.00  0.00    +0.222 HD
ENDBRANCH  26  30
ENDBRANCH  25  26
ENDBRANCH  21  25
ENDBRANCH  20  21
ENDBRANCH  19  20
ENDBRANCH   4  19
TORSDOF 11
ENDMDL
MODEL 10
REMARK VINA RESULT:    -6.849      5.181      7.409
REMARK INTER + INTRA:         -11.596
REMARK INTER:                  -9.887
REMARK INTRA:                  -1.709
REMARK UNBOUND:                -1.343
REMARK  Name = UDP
REMARK  11 active torsions:
REMARK  status: ('A' for Active; 'I' for Inactive)
REMARK    1  A    between atoms: N_1  and  C_9
REMARK    2  A    between atoms: C_10  and  O_11
REMARK    3  A    between atoms: C_12  and  O_15
REMARK    4  A    between atoms: C_13  and  C_16
REMARK    5  A    between atoms: C_16  and  O_17
REMARK    6  A    between atoms: O_17  and  P_18
REMARK    7  A    between atoms: P_18  and  O_20
REMARK    8  A    between atoms: P_18  and  O_21
REMARK    9  A    between atoms: O_21  and  P_22
REMARK   10  A    between atoms: P_22  and  O_24
REMARK   11  A    between atoms: P_22  and  O_25
REMARK                            x       y       z     vdW  Elec       q    Type
REMARK                         _______ _______ _______ _____ _____    ______ ____
ROOT
ATOM      1  C   UNL     1      56.293  17.387  -6.929  0.00  0.00    +0.255 C 
ATOM      2  C   UNL     1      55.875  18.863  -7.053  0.00  0.00    +0.195 C 
ATOM      3  C   UNL     1      57.081  19.526  -7.693  0.00  0.00    +0.178 C 
ATOM      4  C   UNL     1      57.840  18.343  -8.281  0.00  0.00    +0.178 C 
ATOM      5  O   UNL     1      57.590  17.223  -7.465  0.00  0.00    -0.346 OA
ENDROOT
BRANCH   1   6
ATOM      6  N   UNL     1      56.258  16.941  -5.521  0.00  0.00    -0.271 N 
ATOM      7  C   UNL     1      55.074  16.685  -4.869  0.00  0.00    +0.331 A 
ATOM      8  N   UNL     1      55.079  16.256  -3.576  0.00  0.00    -0.275 N 
ATOM      9  C   UNL     1      56.244  16.059  -2.906  0.00  0.00    +0.254 A 
ATOM     10  C   UNL     1      57.457  16.293  -3.545  0.00  0.00    +0.088 A 
ATOM     11  C   UNL     1      57.442  16.732  -4.866  0.00  0.00    +0.098 A 
ATOM     12  O   UNL     1      53.969  16.837  -5.460  0.00  0.00    -0.246 OA
ATOM     13  O   UNL     1      56.228  15.663  -1.711  0.00  0.00    -0.268 OA
ATOM     14  H   UNL     1      54.171  16.071  -3.091  0.00  0.00    +0.173 HD
ENDBRANCH   1   6
BRANCH   2  15
ATOM     15  O   UNL     1      54.705  19.003  -7.827  0.00  0.00    -0.385 OA
ATOM     16  H   UNL     1      54.878  19.685  -8.528  0.00  0.00    +0.210 HD
ENDBRANCH   2  15
BRANCH   3  17
ATOM     17  O   UNL     1      56.729  20.445  -8.696  0.00  0.00    -0.386 OA
ATOM     18  H   UNL     1      55.818  20.770  -8.469  0.00  0.00    +0.210 HD
ENDBRANCH   3  17
BRANCH   4  19
ATOM     19  C   UNL     1      59.345  18.610  -8.358  0.00  0.00    +0.206 C 
BRANCH  19  20
ATOM     20  O   UNL     1      60.037  17.474  -7.893  0.00  0.00    -0.284 OA
BRANCH  20  21
ATOM     21  P   UNL     1      60.931  17.923  -6.514  0.00  0.00    +0.483 P 
ATOM     22  O   UNL     1      61.202  16.678  -5.698  0.00  0.00    -0.227 OA
BRANCH  21  23
ATOM     23  O   UNL     1      62.406  18.604  -6.998  0.00  0.00    -0.302 OA
ATOM     24  H   UNL     1      63.003  18.499  -6.214  0.00  0.00    +0.222 HD
ENDBRANCH  21  23
BRANCH  21  25
ATOM     25  O   UNL     1      60.013  19.020  -5.589  0.00  0.00    -0.186 OA
BRANCH  25  26
ATOM     26  P   UNL     1      61.084  19.856  -4.563  0.00  0.00    +0.481 P 
ATOM     27  O   UNL     1      61.638  21.046  -5.311  0.00  0.00    -0.227 OA
BRANCH  26  28
ATOM     28  O   UNL     1      60.288  20.404  -3.172  0.00  0.00    -0.302 OA
ATOM     29  H   UNL     1      60.176  19.596  -2.609  0.00  0.00    +0.222 HD
ENDBRANCH  26  28
BRANCH  26  30
ATOM     30  O   UNL     1      62.368  18.845  -4.122  0.00  0.00    -0.302 OA
ATOM     31  H   UNL     1      62.865  18.686  -4.963  0.00  0.00    +0.222 HD
ENDBRANCH  26  30
ENDBRANCH  25  26
ENDBRANCH  21  25
ENDBRANCH  20  21
ENDBRANCH  19  20
ENDBRANCH   4  19
TORSDOF 11
ENDMDL
MODEL 11
REMARK VINA RESULT:    -6.843      6.096      9.129
REMARK INTER + INTRA:         -11.587
REMARK INTER:                  -9.711
REMARK INTRA:                  -1.876
REMARK UNBOUND:                -1.343
REMARK  Name = UDP
REMARK  11 active torsions:
REMARK  status: ('A' for Active; 'I' for Inactive)
REMARK    1  A    between atoms: N_1  and  C_9
REMARK    2  A    between atoms: C_10  and  O_11
REMARK    3  A    between atoms: C_12  and  O_15
REMARK    4  A    between atoms: C_13  and  C_16
REMARK    5  A    between atoms: C_16  and  O_17
REMARK    6  A    between atoms: O_17  and  P_18
REMARK    7  A    between atoms: P_18  and  O_20
REMARK    8  A    between atoms: P_18  and  O_21
REMARK    9  A    between atoms: O_21  and  P_22
REMARK   10  A    between atoms: P_22  and  O_24
REMARK   11  A    between atoms: P_22  and  O_25
REMARK                            x       y       z     vdW  Elec       q    Type
REMARK                         _______ _______ _______ _____ _____    ______ ____
ROOT
ATOM      1  C   UNL     1      51.816  25.778  -1.576  0.00  0.00    +0.255 C 
ATOM      2  C   UNL     1      52.328  25.766  -0.125  0.00  0.00    +0.195 C 
ATOM      3  C   UNL     1      53.800  25.422  -0.266  0.00  0.00    +0.178 C 
ATOM      4  C   UNL     1      54.076  25.728  -1.732  0.00  0.00    +0.178 C 
ATOM      5  O   UNL     1      52.888  25.494  -2.452  0.00  0.00    -0.346 OA
ENDROOT
BRANCH   1   6
ATOM      6  N   UNL     1      50.727  24.797  -1.763  0.00  0.00    -0.271 N 
ATOM      7  C   UNL     1      49.470  24.999  -1.241  0.00  0.00    +0.331 A 
ATOM      8  N   UNL     1      48.483  24.083  -1.449  0.00  0.00    -0.275 N 
ATOM      9  C   UNL     1      48.709  22.962  -2.183  0.00  0.00    +0.254 A 
ATOM     10  C   UNL     1      49.964  22.740  -2.738  0.00  0.00    +0.088 A 
ATOM     11  C   UNL     1      50.967  23.681  -2.519  0.00  0.00    +0.098 A 
ATOM     12  O   UNL     1      49.212  26.035  -0.569  0.00  0.00    -0.246 OA
ATOM     13  O   UNL     1      47.783  22.127  -2.363  0.00  0.00    -0.268 OA
ATOM     14  H   UNL     1      47.534  24.246  -1.042  0.00  0.00    +0.173 HD
ENDBRANCH   1   6
BRANCH   2  15
ATOM     15  O   UNL     1      52.120  27.011   0.503  0.00  0.00    -0.385 OA
ATOM     16  H   UNL     1      52.014  27.700  -0.204  0.00  0.00    +0.210 HD
ENDBRANCH   2  15
BRANCH   3  17
ATOM     17  O   UNL     1      54.622  26.195   0.571  0.00  0.00    -0.386 OA
ATOM     18  H   UNL     1      55.230  25.557   1.030  0.00  0.00    +0.210 HD
ENDBRANCH   3  17
BRANCH   4  19
ATOM     19  C   UNL     1      55.207  24.864  -2.295  0.00  0.00    +0.206 C 
BRANCH  19  20
ATOM     20  O   UNL     1      55.911  24.276  -1.226  0.00  0.00    -0.284 OA
BRANCH  20  21
ATOM     21  P   UNL     1      57.482  24.935  -1.196  0.00  0.00    +0.483 P 
ATOM     22  O   UNL     1      57.926  25.168  -2.623  0.00  0.00    -0.227 OA
BRANCH  21  23
ATOM     23  O   UNL     1      57.453  26.417  -0.373  0.00  0.00    -0.302 OA
ATOM     24  H   UNL     1      56.550  26.465   0.031  0.00  0.00    +0.222 HD
ENDBRANCH  21  23
BRANCH  21  25
ATOM     25  O   UNL     1      58.536  23.828  -0.445  0.00  0.00    -0.186 OA
BRANCH  25  26
ATOM     26  P   UNL     1      58.044  22.261  -0.890  0.00  0.00    +0.481 P 
ATOM     27  O   UNL     1      59.162  21.295  -0.568  0.00  0.00    -0.227 OA
BRANCH  26  28
ATOM     28  O   UNL     1      56.655  21.795  -0.040  0.00  0.00    -0.302 OA
ATOM     29  H   UNL     1      56.983  21.174   0.660  0.00  0.00    +0.222 HD
ENDBRANCH  26  28
BRANCH  26  30
ATOM     30  O   UNL     1      57.739  22.202  -2.554  0.00  0.00    -0.302 OA
ATOM     31  H   UNL     1      57.685  23.150  -2.835  0.00  0.00    +0.222 HD
ENDBRANCH  26  30
ENDBRANCH  25  26
ENDBRANCH  21  25
ENDBRANCH  20  21
ENDBRANCH  19  20
ENDBRANCH   4  19
TORSDOF 11
ENDMDL
MODEL 12
REMARK VINA RESULT:    -6.767      5.518      7.309
REMARK INTER + INTRA:         -11.473
REMARK INTER:                  -9.871
REMARK INTRA:                  -1.602
REMARK UNBOUND:                -1.343
REMARK  Name = UDP
REMARK  11 active torsions:
REMARK  status: ('A' for Active; 'I' for Inactive)
REMARK    1  A    between atoms: N_1  and  C_9
REMARK    2  A    between atoms: C_10  and  O_11
REMARK    3  A    between atoms: C_12  and  O_15
REMARK    4  A    between atoms: C_13  and  C_16
REMARK    5  A    between atoms: C_16  and  O_17
REMARK    6  A    between atoms: O_17  and  P_18
REMARK    7  A    between atoms: P_18  and  O_20
REMARK    8  A    between atoms: P_18  and  O_21
REMARK    9  A    between atoms: O_21  and  P_22
REMARK   10  A    between atoms: P_22  and  O_24
REMARK   11  A    between atoms: P_22  and  O_25
REMARK                            x       y       z     vdW  Elec       q    Type
REMARK                         _______ _______ _______ _____ _____    ______ ____
ROOT
ATOM      1  C   UNL     1      57.167  17.968  -6.224  0.00  0.00    +0.255 C 
ATOM      2  C   UNL     1      56.548  16.559  -6.269  0.00  0.00    +0.195 C 
ATOM      3  C   UNL     1      55.831  16.438  -4.936  0.00  0.00    +0.178 C 
ATOM      4  C   UNL     1      55.712  17.889  -4.488  0.00  0.00    +0.178 C 
ATOM      5  O   UNL     1      56.818  18.592  -5.005  0.00  0.00    -0.346 OA
ENDROOT
BRANCH   1   6
ATOM      6  N   UNL     1      58.636  17.907  -6.368  0.00  0.00    -0.271 N 
ATOM      7  C   UNL     1      59.273  18.350  -7.504  0.00  0.00    +0.331 A 
ATOM      8  N   UNL     1      60.631  18.298  -7.596  0.00  0.00    -0.275 N 
ATOM      9  C   UNL     1      61.387  17.825  -6.571  0.00  0.00    +0.254 A 
ATOM     10  C   UNL     1      60.772  17.388  -5.403  0.00  0.00    +0.088 A 
ATOM     11  C   UNL     1      59.383  17.443  -5.319  0.00  0.00    +0.098 A 
ATOM     12  O   UNL     1      58.611  18.814  -8.473  0.00  0.00    -0.246 OA
ATOM     13  O   UNL     1      62.642  17.785  -6.676  0.00  0.00    -0.268 OA
ATOM     14  H   UNL     1      61.102  18.632  -8.469  0.00  0.00    +0.173 HD
ENDBRANCH   1   6
BRANCH   2  15
ATOM     15  O   UNL     1      55.677  16.415  -7.368  0.00  0.00    -0.385 OA
ATOM     16  H   UNL     1      55.216  15.540  -7.284  0.00  0.00    +0.210 HD
ENDBRANCH   2  15
BRANCH   3  17
ATOM     17  O   UNL     1      54.563  15.844  -5.052  0.00  0.00    -0.386 OA
ATOM     18  H   UNL     1      54.708  14.864  -4.986  0.00  0.00    +0.210 HD
ENDBRANCH   3  17
BRANCH   4  19
ATOM     19  C   UNL     1      55.677  18.016  -2.963  0.00  0.00    +0.206 C 
BRANCH  19  20
ATOM     20  O   UNL     1      54.536  17.352  -2.473  0.00  0.00    -0.284 OA
BRANCH  20  21
ATOM     21  P   UNL     1      55.050  16.139  -1.392  0.00  0.00    +0.483 P 
ATOM     22  O   UNL     1      56.264  16.650  -0.647  0.00  0.00    -0.227 OA
BRANCH  21  23
ATOM     23  O   UNL     1      53.810  15.816  -0.281  0.00  0.00    -0.302 OA
ATOM     24  H   UNL     1      54.258  15.809   0.603  0.00  0.00    +0.222 HD
ENDBRANCH  21  23
BRANCH  21  25
ATOM     25  O   UNL     1      55.470  14.746  -2.277  0.00  0.00    -0.186 OA
BRANCH  25  26
ATOM     26  P   UNL     1      55.352  13.411  -1.229  0.00  0.00    +0.481 P 
ATOM     27  O   UNL     1      53.897  13.018  -1.110  0.00  0.00    -0.227 OA
BRANCH  26  28
ATOM     28  O   UNL     1      56.229  12.091  -1.827  0.00  0.00    -0.302 OA
ATOM     29  H   UNL     1      57.140  12.446  -1.993  0.00  0.00    +0.222 HD
ENDBRANCH  26  28
BRANCH  26  30
ATOM     30  O   UNL     1      55.930  13.829   0.306  0.00  0.00    -0.302 OA
ATOM     31  H   UNL     1      56.795  13.354   0.388  0.00  0.00    +0.222 HD
ENDBRANCH  26  30
ENDBRANCH  25  26
ENDBRANCH  21  25
ENDBRANCH  20  21
ENDBRANCH  19  20
ENDBRANCH   4  19
TORSDOF 11
ENDMDL
MODEL 13
REMARK VINA RESULT:    -6.755      3.989      7.311
REMARK INTER + INTRA:         -11.455
REMARK INTER:                  -9.593
REMARK INTRA:                  -1.862
REMARK UNBOUND:                -1.343
REMARK  Name = UDP
REMARK  11 active torsions:
REMARK  status: ('A' for Active; 'I' for Inactive)
REMARK    1  A    between atoms: N_1  and  C_9
REMARK    2  A    between atoms: C_10  and  O_11
REMARK    3  A    between atoms: C_12  and  O_15
REMARK    4  A    between atoms: C_13  and  C_16
REMARK    5  A    between atoms: C_16  and  O_17
REMARK    6  A    between atoms: O_17  and  P_18
REMARK    7  A    between atoms: P_18  and  O_20
REMARK    8  A    between atoms: P_18  and  O_21
REMARK    9  A    between atoms: O_21  and  P_22
REMARK   10  A    between atoms: P_22  and  O_24
REMARK   11  A    between atoms: P_22  and  O_25
REMARK                            x       y       z     vdW  Elec       q    Type
REMARK                         _______ _______ _______ _____ _____    ______ ____
ROOT
ATOM      1  C   UNL     1      56.789  16.971  -4.227  0.00  0.00    +0.255 C 
ATOM      2  C   UNL     1      55.517  16.929  -5.093  0.00  0.00    +0.195 C 
ATOM      3  C   UNL     1      56.040  17.096  -6.508  0.00  0.00    +0.178 C 
ATOM      4  C   UNL     1      57.517  16.752  -6.362  0.00  0.00    +0.178 C 
ATOM      5  O   UNL     1      57.918  17.120  -5.064  0.00  0.00    -0.346 OA
ENDROOT
BRANCH   1   6
ATOM      6  N   UNL     1      56.728  18.073  -3.245  0.00  0.00    -0.271 N 
ATOM      7  C   UNL     1      56.492  17.842  -1.909  0.00  0.00    +0.331 A 
ATOM      8  N   UNL     1      56.461  18.879  -1.027  0.00  0.00    -0.275 N 
ATOM      9  C   UNL     1      56.675  20.157  -1.437  0.00  0.00    +0.254 A 
ATOM     10  C   UNL     1      56.933  20.418  -2.778  0.00  0.00    +0.088 A 
ATOM     11  C   UNL     1      56.961  19.351  -3.673  0.00  0.00    +0.098 A 
ATOM     12  O   UNL     1      56.307  16.669  -1.482  0.00  0.00    -0.246 OA
ATOM     13  O   UNL     1      56.642  21.102  -0.605  0.00  0.00    -0.268 OA
ATOM     14  H   UNL     1      56.275  18.690  -0.015  0.00  0.00    +0.173 HD
ENDBRANCH   1   6
BRANCH   2  15
ATOM     15  O   UNL     1      54.813  15.721  -4.915  0.00  0.00    -0.385 OA
ATOM     16  H   UNL     1      53.890  15.942  -4.621  0.00  0.00    +0.210 HD
ENDBRANCH   2  15
BRANCH   3  17
ATOM     17  O   UNL     1      55.413  16.237  -7.426  0.00  0.00    -0.386 OA
ATOM     18  H   UNL     1      54.605  16.715  -7.748  0.00  0.00    +0.210 HD
ENDBRANCH   3  17
BRANCH   4  19
ATOM     19  C   UNL     1      58.379  17.473  -7.401  0.00  0.00    +0.206 C 
BRANCH  19  20
ATOM     20  O   UNL     1      58.994  18.586  -6.795  0.00  0.00    -0.284 OA
BRANCH  20  21
ATOM     21  P   UNL     1      60.631  18.611  -7.265  0.00  0.00    +0.483 P 
ATOM     22  O   UNL     1      61.252  17.282  -6.895  0.00  0.00    -0.227 OA
BRANCH  21  23
ATOM     23  O   UNL     1      60.730  18.823  -8.945  0.00  0.00    -0.302 OA
ATOM     24  H   UNL     1      61.630  18.490  -9.190  0.00  0.00    +0.222 HD
ENDBRANCH  21  23
BRANCH  21  25
ATOM     25  O   UNL     1      61.431  19.863  -6.433  0.00  0.00    -0.186 OA
BRANCH  25  26
ATOM     26  P   UNL     1      61.111  19.669  -4.773  0.00  0.00    +0.481 P 
ATOM     27  O   UNL     1      60.117  20.725  -4.346  0.00  0.00    -0.227 OA
BRANCH  26  28
ATOM     28  O   UNL     1      60.457  18.140  -4.454  0.00  0.00    -0.302 OA
ATOM     29  H   UNL     1      60.423  17.690  -5.337  0.00  0.00    +0.222 HD
ENDBRANCH  26  28
BRANCH  26  30
ATOM     30  O   UNL     1      62.537  19.873  -3.883  0.00  0.00    -0.302 OA
ATOM     31  H   UNL     1      62.323  19.528  -2.980  0.00  0.00    +0.222 HD
ENDBRANCH  26  30
ENDBRANCH  25  26
ENDBRANCH  21  25
ENDBRANCH  20  21
ENDBRANCH  19  20
ENDBRANCH   4  19
TORSDOF 11
ENDMDL
MODEL 14
REMARK VINA RESULT:    -6.724      7.456     10.959
REMARK INTER + INTRA:         -11.409
REMARK INTER:                  -9.386
REMARK INTRA:                  -2.023
REMARK UNBOUND:                -1.343
REMARK  Name = UDP
REMARK  11 active torsions:
REMARK  status: ('A' for Active; 'I' for Inactive)
REMARK    1  A    between atoms: N_1  and  C_9
REMARK    2  A    between atoms: C_10  and  O_11
REMARK    3  A    between atoms: C_12  and  O_15
REMARK    4  A    between atoms: C_13  and  C_16
REMARK    5  A    between atoms: C_16  and  O_17
REMARK    6  A    between atoms: O_17  and  P_18
REMARK    7  A    between atoms: P_18  and  O_20
REMARK    8  A    between atoms: P_18  and  O_21
REMARK    9  A    between atoms: O_21  and  P_22
REMARK   10  A    between atoms: P_22  and  O_24
REMARK   11  A    between atoms: P_22  and  O_25
REMARK                            x       y       z     vdW  Elec       q    Type
REMARK                         _______ _______ _______ _____ _____    ______ ____
ROOT
ATOM      1  C   UNL     1      55.234  18.995   2.805  0.00  0.00    +0.255 C 
ATOM      2  C   UNL     1      56.570  18.238   2.913  0.00  0.00    +0.195 C 
ATOM      3  C   UNL     1      56.158  16.777   2.907  0.00  0.00    +0.178 C 
ATOM      4  C   UNL     1      54.744  16.831   2.342  0.00  0.00    +0.178 C 
ATOM      5  O   UNL     1      54.175  18.062   2.722  0.00  0.00    -0.346 OA
ENDROOT
BRANCH   1   6
ATOM      6  N   UNL     1      55.038  19.893   3.962  0.00  0.00    -0.271 N 
ATOM      7  C   UNL     1      55.416  21.216   3.926  0.00  0.00    +0.331 A 
ATOM      8  N   UNL     1      55.202  22.021   5.003  0.00  0.00    -0.275 N 
ATOM      9  C   UNL     1      54.603  21.548   6.127  0.00  0.00    +0.254 A 
ATOM     10  C   UNL     1      54.193  20.220   6.184  0.00  0.00    +0.088 A 
ATOM     11  C   UNL     1      54.417  19.404   5.079  0.00  0.00    +0.098 A 
ATOM     12  O   UNL     1      55.960  21.701   2.896  0.00  0.00    -0.246 OA
ATOM     13  O   UNL     1      54.414  22.309   7.112  0.00  0.00    -0.268 OA
ATOM     14  H   UNL     1      55.500  23.023   4.965  0.00  0.00    +0.173 HD
ENDBRANCH   1   6
BRANCH   2  15
ATOM     15  O   UNL     1      57.432  18.562   1.845  0.00  0.00    -0.385 OA
ATOM     16  H   UNL     1      57.449  17.792   1.218  0.00  0.00    +0.210 HD
ENDBRANCH   2  15
BRANCH   3  17
ATOM     17  O   UNL     1      56.989  15.980   2.103  0.00  0.00    -0.386 OA
ATOM     18  H   UNL     1      56.961  15.067   2.493  0.00  0.00    +0.210 HD
ENDBRANCH   3  17
BRANCH   4  19
ATOM     19  C   UNL     1      53.879  15.676   2.852  0.00  0.00    +0.206 C 
BRANCH  19  20
ATOM     20  O   UNL     1      53.689  14.749   1.809  0.00  0.00    -0.284 OA
BRANCH  20  21
ATOM     21  P   UNL     1      54.478  13.300   2.234  0.00  0.00    +0.483 P 
ATOM     22  O   UNL     1      54.864  13.380   3.695  0.00  0.00    -0.227 OA
BRANCH  21  23
ATOM     23  O   UNL     1      53.418  11.996   2.008  0.00  0.00    -0.302 OA
ATOM     24  H   UNL     1      52.519  12.408   1.949  0.00  0.00    +0.222 HD
ENDBRANCH  21  23
BRANCH  21  25
ATOM     25  O   UNL     1      55.882  13.131   1.284  0.00  0.00    -0.186 OA
BRANCH  25  26
ATOM     26  P   UNL     1      55.481  13.558  -0.314  0.00  0.00    +0.481 P 
ATOM     27  O   UNL     1      56.470  12.902  -1.250  0.00  0.00    -0.227 OA
BRANCH  26  28
ATOM     28  O   UNL     1      53.920  13.033  -0.710  0.00  0.00    -0.302 OA
ATOM     29  H   UNL     1      53.782  12.215  -0.167  0.00  0.00    +0.222 HD
ENDBRANCH  26  28
BRANCH  26  30
ATOM     30  O   UNL     1      55.582  15.237  -0.506  0.00  0.00    -0.302 OA
ATOM     31  H   UNL     1      54.668  15.568  -0.317  0.00  0.00    +0.222 HD
ENDBRANCH  26  30
ENDBRANCH  25  26
ENDBRANCH  21  25
ENDBRANCH  20  21
ENDBRANCH  19  20
ENDBRANCH   4  19
TORSDOF 11
ENDMDL
MODEL 15
REMARK VINA RESULT:    -6.713      3.888      8.163
REMARK INTER + INTRA:         -11.392
REMARK INTER:                  -9.843
REMARK INTRA:                  -1.549
REMARK UNBOUND:                -1.343
REMARK  Name = UDP
REMARK  11 active torsions:
REMARK  status: ('A' for Active; 'I' for Inactive)
REMARK    1  A    between atoms: N_1  and  C_9
REMARK    2  A    between atoms: C_10  and  O_11
REMARK    3  A    between atoms: C_12  and  O_15
REMARK    4  A    between atoms: C_13  and  C_16
REMARK    5  A    between atoms: C_16  and  O_17
REMARK    6  A    between atoms: O_17  and  P_18
REMARK    7  A    between atoms: P_18  and  O_20
REMARK    8  A    between atoms: P_18  and  O_21
REMARK    9  A    between atoms: O_21  and  P_22
REMARK   10  A    between atoms: P_22  and  O_24
REMARK   11  A    between atoms: P_22  and  O_25
REMARK                            x       y       z     vdW  Elec       q    Type
REMARK                         _______ _______ _______ _____ _____    ______ ____
ROOT
ATOM      1  C   UNL     1      58.263  21.843  -1.825  0.00  0.00    +0.255 C 
ATOM      2  C   UNL     1      57.730  20.624  -1.051  0.00  0.00    +0.195 C 
ATOM      3  C   UNL     1      57.647  19.536  -2.106  0.00  0.00    +0.178 C 
ATOM      4  C   UNL     1      58.546  20.074  -3.213  0.00  0.00    +0.178 C 
ATOM      5  O   UNL     1      58.483  21.480  -3.173  0.00  0.00    -0.346 OA
ENDROOT
BRANCH   1   6
ATOM      6  N   UNL     1      57.319  22.977  -1.746  0.00  0.00    -0.271 N 
ATOM      7  C   UNL     1      57.580  24.086  -0.974  0.00  0.00    +0.331 A 
ATOM      8  N   UNL     1      56.696  25.122  -0.939  0.00  0.00    -0.275 N 
ATOM      9  C   UNL     1      55.551  25.094  -1.669  0.00  0.00    +0.254 A 
ATOM     10  C   UNL     1      55.270  23.994  -2.472  0.00  0.00    +0.088 A 
ATOM     11  C   UNL     1      56.178  22.939  -2.501  0.00  0.00    +0.098 A 
ATOM     12  O   UNL     1      58.640  24.161  -0.295  0.00  0.00    -0.246 OA
ATOM     13  O   UNL     1      54.747  26.062  -1.623  0.00  0.00    -0.268 OA
ATOM     14  H   UNL     1      56.904  25.956  -0.344  0.00  0.00    +0.173 HD
ENDBRANCH   1   6
BRANCH   2  15
ATOM     15  O   UNL     1      58.585  20.279   0.016  0.00  0.00    -0.385 OA
ATOM     16  H   UNL     1      58.619  21.047   0.645  0.00  0.00    +0.210 HD
ENDBRANCH   2  15
BRANCH   3  17
ATOM     17  O   UNL     1      58.110  18.292  -1.645  0.00  0.00    -0.386 OA
ATOM     18  H   UNL     1      58.587  17.872  -2.408  0.00  0.00    +0.210 HD
ENDBRANCH   3  17
BRANCH   4  19
ATOM     19  C   UNL     1      58.119  19.569  -4.594  0.00  0.00    +0.206 C 
BRANCH  19  20
ATOM     20  O   UNL     1      58.439  18.203  -4.702  0.00  0.00    -0.284 OA
BRANCH  20  21
ATOM     21  P   UNL     1      59.360  17.983  -6.119  0.00  0.00    +0.483 P 
ATOM     22  O   UNL     1      58.429  17.537  -7.226  0.00  0.00    -0.227 OA
BRANCH  21  23
ATOM     23  O   UNL     1      60.079  19.455  -6.556  0.00  0.00    -0.302 OA
ATOM     24  H   UNL     1      61.019  19.225  -6.768  0.00  0.00    +0.222 HD
ENDBRANCH  21  23
BRANCH  21  25
ATOM     25  O   UNL     1      60.530  16.777  -5.841  0.00  0.00    -0.186 OA
BRANCH  25  26
ATOM     26  P   UNL     1      61.963  17.551  -5.345  0.00  0.00    +0.481 P 
ATOM     27  O   UNL     1      62.861  16.527  -4.688  0.00  0.00    -0.227 OA
BRANCH  26  28
ATOM     28  O   UNL     1      62.778  18.227  -6.666  0.00  0.00    -0.302 OA
ATOM     29  H   UNL     1      62.705  17.547  -7.384  0.00  0.00    +0.222 HD
ENDBRANCH  26  28
BRANCH  26  30
ATOM     30  O   UNL     1      61.604  18.762  -4.218  0.00  0.00    -0.302 OA
ATOM     31  H   UNL     1      62.354  18.736  -3.571  0.00  0.00    +0.222 HD
ENDBRANCH  26  30
ENDBRANCH  25  26
ENDBRANCH  21  25
ENDBRANCH  20  21
ENDBRANCH  19  20
ENDBRANCH   4  19
TORSDOF 11
ENDMDL
MODEL 16
REMARK VINA RESULT:    -6.693      5.179      8.003
REMARK INTER + INTRA:         -11.363
REMARK INTER:                 -10.244
REMARK INTRA:                  -1.119
REMARK UNBOUND:                -1.343
REMARK  Name = UDP
REMARK  11 active torsions:
REMARK  status: ('A' for Active; 'I' for Inactive)
REMARK    1  A    between atoms: N_1  and  C_9
REMARK    2  A    between atoms: C_10  and  O_11
REMARK    3  A    between atoms: C_12  and  O_15
REMARK    4  A    between atoms: C_13  and  C_16
REMARK    5  A    between atoms: C_16  and  O_17
REMARK    6  A    between atoms: O_17  and  P_18
REMARK    7  A    between atoms: P_18  and  O_20
REMARK    8  A    between atoms: P_18  and  O_21
REMARK    9  A    between atoms: O_21  and  P_22
REMARK   10  A    between atoms: P_22  and  O_24
REMARK   11  A    between atoms: P_22  and  O_25
REMARK                            x       y       z     vdW  Elec       q    Type
REMARK                         _______ _______ _______ _____ _____    ______ ____
ROOT
ATOM      1  C   UNL     1      57.628  18.563  -6.073  0.00  0.00    +0.255 C 
ATOM      2  C   UNL     1      57.445  17.377  -7.036  0.00  0.00    +0.195 C 
ATOM      3  C   UNL     1      56.346  16.554  -6.389  0.00  0.00    +0.178 C 
ATOM      4  C   UNL     1      55.710  17.546  -5.423  0.00  0.00    +0.178 C 
ATOM      5  O   UNL     1      56.713  18.441  -5.003  0.00  0.00    -0.346 OA
ENDROOT
BRANCH   1   6
ATOM      6  N   UNL     1      59.013  18.623  -5.561  0.00  0.00    -0.271 N 
ATOM      7  C   UNL     1      59.420  19.599  -4.681  0.00  0.00    +0.331 A 
ATOM      8  N   UNL     1      60.699  19.613  -4.213  0.00  0.00    -0.275 N 
ATOM      9  C   UNL     1      61.595  18.664  -4.589  0.00  0.00    +0.254 A 
ATOM     10  C   UNL     1      61.206  17.654  -5.463  0.00  0.00    +0.088 A 
ATOM     11  C   UNL     1      59.897  17.649  -5.937  0.00  0.00    +0.098 A 
ATOM     12  O   UNL     1      58.615  20.490  -4.291  0.00  0.00    -0.246 OA
ATOM     13  O   UNL     1      62.773  18.695  -4.145  0.00  0.00    -0.268 OA
ATOM     14  H   UNL     1      60.996  20.365  -3.549  0.00  0.00    +0.173 HD
ENDBRANCH   1   6
BRANCH   2  15
ATOM     15  O   UNL     1      57.101  17.815  -8.332  0.00  0.00    -0.385 OA
ATOM     16  H   UNL     1      57.880  17.657  -8.928  0.00  0.00    +0.210 HD
ENDBRANCH   2  15
BRANCH   3  17
ATOM     17  O   UNL     1      55.402  16.080  -7.315  0.00  0.00    -0.386 OA
ATOM     18  H   UNL     1      55.521  15.095  -7.355  0.00  0.00    +0.210 HD
ENDBRANCH   3  17
BRANCH   4  19
ATOM     19  C   UNL     1      55.091  16.847  -4.210  0.00  0.00    +0.206 C 
BRANCH  19  20
ATOM     20  O   UNL     1      54.621  15.578  -4.601  0.00  0.00    -0.284 OA
BRANCH  20  21
ATOM     21  P   UNL     1      54.058  14.768  -3.212  0.00  0.00    +0.483 P 
ATOM     22  O   UNL     1      52.844  15.505  -2.692  0.00  0.00    -0.227 OA
BRANCH  21  23
ATOM     23  O   UNL     1      53.614  13.185  -3.627  0.00  0.00    -0.302 OA
ATOM     24  H   UNL     1      52.835  13.291  -4.230  0.00  0.00    +0.222 HD
ENDBRANCH  21  23
BRANCH  21  25
ATOM     25  O   UNL     1      55.281  14.780  -2.026  0.00  0.00    -0.186 OA
BRANCH  25  26
ATOM     26  P   UNL     1      55.255  13.272  -1.238  0.00  0.00    +0.481 P 
ATOM     27  O   UNL     1      53.824  12.940  -0.880  0.00  0.00    -0.227 OA
BRANCH  26  28
ATOM     28  O   UNL     1      55.866  12.051  -2.241  0.00  0.00    -0.302 OA
ATOM     29  H   UNL     1      55.157  11.899  -2.916  0.00  0.00    +0.222 HD
ENDBRANCH  26  28
BRANCH  26  30
ATOM     30  O   UNL     1      56.168  13.348   0.185  0.00  0.00    -0.302 OA
ATOM     31  H   UNL     1      55.792  14.116   0.685  0.00  0.00    +0.222 HD
ENDBRANCH  26  30
ENDBRANCH  25  26
ENDBRANCH  21  25
ENDBRANCH  20  21
ENDBRANCH  19  20
ENDBRANCH   4  19
TORSDOF 11
ENDMDL
MODEL 17
REMARK VINA RESULT:    -6.691      5.155      7.044
REMARK INTER + INTRA:         -11.359
REMARK INTER:                  -9.667
REMARK INTRA:                  -1.692
REMARK UNBOUND:                -1.343
REMARK  Name = UDP
REMARK  11 active torsions:
REMARK  status: ('A' for Active; 'I' for Inactive)
REMARK    1  A    between atoms: N_1  and  C_9
REMARK    2  A    between atoms: C_10  and  O_11
REMARK    3  A    between atoms: C_12  and  O_15
REMARK    4  A    between atoms: C_13  and  C_16
REMARK    5  A    between atoms: C_16  and  O_17
REMARK    6  A    between atoms: O_17  and  P_18
REMARK    7  A    between atoms: P_18  and  O_20
REMARK    8  A    between atoms: P_18  and  O_21
REMARK    9  A    between atoms: O_21  and  P_22
REMARK   10  A    between atoms: P_22  and  O_24
REMARK   11  A    between atoms: P_22  and  O_25
REMARK                            x       y       z     vdW  Elec       q    Type
REMARK                         _______ _______ _______ _____ _____    ______ ____
ROOT
ATOM      1  C   UNL     1      58.363  18.580  -7.135  0.00  0.00    +0.255 C 
ATOM      2  C   UNL     1      58.424  17.092  -7.521  0.00  0.00    +0.195 C 
ATOM      3  C   UNL     1      57.133  16.522  -6.961  0.00  0.00    +0.178 C 
ATOM      4  C   UNL     1      56.284  17.768  -6.744  0.00  0.00    +0.178 C 
ATOM      5  O   UNL     1      57.154  18.836  -6.449  0.00  0.00    -0.346 OA
ENDROOT
BRANCH   1   6
ATOM      6  N   UNL     1      59.519  18.959  -6.296  0.00  0.00    -0.271 N 
ATOM      7  C   UNL     1      60.759  19.208  -6.838  0.00  0.00    +0.331 A 
ATOM      8  N   UNL     1      61.799  19.574  -6.038  0.00  0.00    -0.275 N 
ATOM      9  C   UNL     1      61.637  19.715  -4.696  0.00  0.00    +0.254 A 
ATOM     10  C   UNL     1      60.391  19.487  -4.123  0.00  0.00    +0.088 A 
ATOM     11  C   UNL     1      59.334  19.112  -4.948  0.00  0.00    +0.098 A 
ATOM     12  O   UNL     1      60.949  19.108  -8.081  0.00  0.00    -0.246 OA
ATOM     13  O   UNL     1      62.611  20.054  -3.973  0.00  0.00    -0.268 OA
ATOM     14  H   UNL     1      62.737  19.755  -6.462  0.00  0.00    +0.173 HD
ENDBRANCH   1   6
BRANCH   2  15
ATOM     15  O   UNL     1      58.529  16.927  -8.917  0.00  0.00    -0.385 OA
ATOM     16  H   UNL     1      59.386  17.333  -9.213  0.00  0.00    +0.210 HD
ENDBRANCH   2  15
BRANCH   3  17
ATOM     17  O   UNL     1      56.501  15.633  -7.847  0.00  0.00    -0.386 OA
ATOM     18  H   UNL     1      56.550  16.053  -8.745  0.00  0.00    +0.210 HD
ENDBRANCH   3  17
BRANCH   4  19
ATOM     19  C   UNL     1      55.278  17.584  -5.606  0.00  0.00    +0.206 C 
BRANCH  19  20
ATOM     20  O   UNL     1      55.124  16.208  -5.346  0.00  0.00    -0.284 OA
BRANCH  20  21
ATOM     21  P   UNL     1      54.197  16.034  -3.927  0.00  0.00    +0.483 P 
ATOM     22  O   UNL     1      52.744  16.267  -4.279  0.00  0.00    -0.227 OA
BRANCH  21  23
ATOM     23  O   UNL     1      54.379  14.459  -3.327  0.00  0.00    -0.302 OA
ATOM     24  H   UNL     1      54.323  13.876  -4.126  0.00  0.00    +0.222 HD
ENDBRANCH  21  23
BRANCH  21  25
ATOM     25  O   UNL     1      54.700  17.196  -2.788  0.00  0.00    -0.186 OA
BRANCH  25  26
ATOM     26  P   UNL     1      56.030  16.553  -1.944  0.00  0.00    +0.481 P 
ATOM     27  O   UNL     1      55.524  15.535  -0.948  0.00  0.00    -0.227 OA
BRANCH  26  28
ATOM     28  O   UNL     1      57.111  15.793  -3.003  0.00  0.00    -0.302 OA
ATOM     29  H   UNL     1      57.969  15.755  -2.507  0.00  0.00    +0.222 HD
ENDBRANCH  26  28
BRANCH  26  30
ATOM     30  O   UNL     1      56.831  17.785  -1.103  0.00  0.00    -0.302 OA
ATOM     31  H   UNL     1      56.473  18.626  -1.486  0.00  0.00    +0.222 HD
ENDBRANCH  26  30
ENDBRANCH  25  26
ENDBRANCH  21  25
ENDBRANCH  20  21
ENDBRANCH  19  20
ENDBRANCH   4  19
TORSDOF 11
ENDMDL
MODEL 18
REMARK VINA RESULT:    -6.583      5.963      8.249
REMARK INTER + INTRA:         -11.197
REMARK INTER:                  -9.160
REMARK INTRA:                  -2.037
REMARK UNBOUND:                -1.343
REMARK  Name = UDP
REMARK  11 active torsions:
REMARK  status: ('A' for Active; 'I' for Inactive)
REMARK    1  A    between atoms: N_1  and  C_9
REMARK    2  A    between atoms: C_10  and  O_11
REMARK    3  A    between atoms: C_12  and  O_15
REMARK    4  A    between atoms: C_13  and  C_16
REMARK    5  A    between atoms: C_16  and  O_17
REMARK    6  A    between atoms: O_17  and  P_18
REMARK    7  A    between atoms: P_18  and  O_20
REMARK    8  A    between atoms: P_18  and  O_21
REMARK    9  A    between atoms: O_21  and  P_22
REMARK   10  A    between atoms: P_22  and  O_24
REMARK   11  A    between atoms: P_22  and  O_25
REMARK                            x       y       z     vdW  Elec       q    Type
REMARK                         _______ _______ _______ _____ _____    ______ ____
ROOT
ATOM      1  C   UNL     1      55.772  14.823  -2.769  0.00  0.00    +0.255 C 
ATOM      2  C   UNL     1      54.843  15.933  -3.292  0.00  0.00    +0.195 C 
ATOM      3  C   UNL     1      55.786  17.089  -3.574  0.00  0.00    +0.178 C 
ATOM      4  C   UNL     1      57.145  16.404  -3.637  0.00  0.00    +0.178 C 
ATOM      5  O   UNL     1      57.106  15.290  -2.776  0.00  0.00    -0.346 OA
ENDROOT
BRANCH   1   6
ATOM      6  N   UNL     1      55.383  14.401  -1.408  0.00  0.00    -0.271 N 
ATOM      7  C   UNL     1      55.614  13.124  -0.950  0.00  0.00    +0.331 A 
ATOM      8  N   UNL     1      55.260  12.774   0.318  0.00  0.00    -0.275 N 
ATOM      9  C   UNL     1      54.687  13.673   1.161  0.00  0.00    +0.254 A 
ATOM     10  C   UNL     1      54.458  14.975   0.731  0.00  0.00    +0.088 A 
ATOM     11  C   UNL     1      54.822  15.323  -0.567  0.00  0.00    +0.098 A 
ATOM     12  O   UNL     1      56.161  12.264  -1.693  0.00  0.00    -0.246 OA
ATOM     13  O   UNL     1      54.366  13.329   2.330  0.00  0.00    -0.268 OA
ATOM     14  H   UNL     1      55.436  11.799   0.651  0.00  0.00    +0.173 HD
ENDBRANCH   1   6
BRANCH   2  15
ATOM     15  O   UNL     1      54.139  15.516  -4.440  0.00  0.00    -0.385 OA
ATOM     16  H   UNL     1      54.309  16.176  -5.163  0.00  0.00    +0.210 HD
ENDBRANCH   2  15
BRANCH   3  17
ATOM     17  O   UNL     1      55.498  17.745  -4.782  0.00  0.00    -0.386 OA
ATOM     18  H   UNL     1      55.248  17.036  -5.431  0.00  0.00    +0.210 HD
ENDBRANCH   3  17
BRANCH   4  19
ATOM     19  C   UNL     1      58.280  17.344  -3.225  0.00  0.00    +0.206 C 
BRANCH  19  20
ATOM     20  O   UNL     1      58.412  18.357  -4.195  0.00  0.00    -0.284 OA
BRANCH  20  21
ATOM     21  P   UNL     1      59.875  18.105  -5.032  0.00  0.00    +0.483 P 
ATOM     22  O   UNL     1      60.997  18.712  -4.219  0.00  0.00    -0.227 OA
BRANCH  21  23
ATOM     23  O   UNL     1      60.147  16.440  -5.199  0.00  0.00    -0.302 OA
ATOM     24  H   UNL     1      60.154  16.090  -4.273  0.00  0.00    +0.222 HD
ENDBRANCH  21  23
BRANCH  21  25
ATOM     25  O   UNL     1      59.789  18.876  -6.548  0.00  0.00    -0.186 OA
BRANCH  25  26
ATOM     26  P   UNL     1      58.209  18.671  -7.145  0.00  0.00    +0.481 P 
ATOM     27  O   UNL     1      58.207  18.987  -8.623  0.00  0.00    -0.227 OA
BRANCH  26  28
ATOM     28  O   UNL     1      57.677  17.078  -6.924  0.00  0.00    -0.302 OA
ATOM     29  H   UNL     1      56.906  17.152  -6.305  0.00  0.00    +0.222 HD
ENDBRANCH  26  28
BRANCH  26  30
ATOM     30  O   UNL     1      57.152  19.736  -6.361  0.00  0.00    -0.302 OA
ATOM     31  H   UNL     1      57.201  19.482  -5.405  0.00  0.00    +0.222 HD
ENDBRANCH  26  30
ENDBRANCH  25  26
ENDBRANCH  21  25
ENDBRANCH  20  21
ENDBRANCH  19  20
ENDBRANCH   4  19
TORSDOF 11
ENDMDL
MODEL 19
REMARK VINA RESULT:    -6.572      6.816      8.839
REMARK INTER + INTRA:         -11.181
REMARK INTER:                  -9.580
REMARK INTRA:                  -1.601
REMARK UNBOUND:                -1.343
REMARK  Name = UDP
REMARK  11 active torsions:
REMARK  status: ('A' for Active; 'I' for Inactive)
REMARK    1  A    between atoms: N_1  and  C_9
REMARK    2  A    between atoms: C_10  and  O_11
REMARK    3  A    between atoms: C_12  and  O_15
REMARK    4  A    between atoms: C_13  and  C_16
REMARK    5  A    between atoms: C_16  and  O_17
REMARK    6  A    between atoms: O_17  and  P_18
REMARK    7  A    between atoms: P_18  and  O_20
REMARK    8  A    between atoms: P_18  and  O_21
REMARK    9  A    between atoms: O_21  and  P_22
REMARK   10  A    between atoms: P_22  and  O_24
REMARK   11  A    between atoms: P_22  and  O_25
REMARK                            x       y       z     vdW  Elec       q    Type
REMARK                         _______ _______ _______ _____ _____    ______ ____
ROOT
ATOM      1  C   UNL     1      55.186  25.601  -0.007  0.00  0.00    +0.255 C 
ATOM      2  C   UNL     1      55.884  24.905  -1.189  0.00  0.00    +0.195 C 
ATOM      3  C   UNL     1      54.779  24.749  -2.219  0.00  0.00    +0.178 C 
ATOM      4  C   UNL     1      53.734  25.749  -1.740  0.00  0.00    +0.178 C 
ATOM      5  O   UNL     1      53.833  25.839  -0.339  0.00  0.00    -0.346 OA
ENDROOT
BRANCH   1   6
ATOM      6  N   UNL     1      55.279  24.784   1.220  0.00  0.00    -0.271 N 
ATOM      7  C   UNL     1      56.283  24.970   2.142  0.00  0.00    +0.331 A 
ATOM      8  N   UNL     1      56.327  24.212   3.273  0.00  0.00    -0.275 N 
ATOM      9  C   UNL     1      55.381  23.271   3.525  0.00  0.00    +0.254 A 
ATOM     10  C   UNL     1      54.344  23.073   2.621  0.00  0.00    +0.088 A 
ATOM     11  C   UNL     1      54.308  23.851   1.466  0.00  0.00    +0.098 A 
ATOM     12  O   UNL     1      57.172  25.846   1.957  0.00  0.00    -0.246 OA
ATOM     13  O   UNL     1      55.440  22.580   4.577  0.00  0.00    -0.268 OA
ATOM     14  H   UNL     1      57.100  24.360   3.963  0.00  0.00    +0.173 HD
ENDBRANCH   1   6
BRANCH   2  15
ATOM     15  O   UNL     1      56.968  25.668  -1.669  0.00  0.00    -0.385 OA
ATOM     16  H   UNL     1      56.880  25.742  -2.656  0.00  0.00    +0.210 HD
ENDBRANCH   2  15
BRANCH   3  17
ATOM     17  O   UNL     1      55.203  25.052  -3.523  0.00  0.00    -0.386 OA
ATOM     18  H   UNL     1      56.024  24.515  -3.681  0.00  0.00    +0.210 HD
ENDBRANCH   3  17
BRANCH   4  19
ATOM     19  C   UNL     1      52.316  25.331  -2.139  0.00  0.00    +0.206 C 
BRANCH  19  20
ATOM     20  O   UNL     1      51.404  25.846  -1.199  0.00  0.00    -0.284 OA
BRANCH  20  21
ATOM     21  P   UNL     1      50.441  24.560  -0.631  0.00  0.00    +0.483 P 
ATOM     22  O   UNL     1      49.352  24.298  -1.648  0.00  0.00    -0.227 OA
BRANCH  21  23
ATOM     23  O   UNL     1      51.399  23.171  -0.468  0.00  0.00    -0.302 OA
ATOM     24  H   UNL     1      51.147  22.792   0.412  0.00  0.00    +0.222 HD
ENDBRANCH  21  23
BRANCH  21  25
ATOM     25  O   UNL     1      49.736  25.007   0.854  0.00  0.00    -0.186 OA
BRANCH  25  26
ATOM     26  P   UNL     1      49.312  26.652   0.754  0.00  0.00    +0.481 P 
ATOM     27  O   UNL     1      48.441  26.999   1.939  0.00  0.00    -0.227 OA
BRANCH  26  28
ATOM     28  O   UNL     1      50.690  27.637   0.779  0.00  0.00    -0.302 OA
ATOM     29  H   UNL     1      51.355  27.129   1.310  0.00  0.00    +0.222 HD
ENDBRANCH  26  28
BRANCH  26  30
ATOM     30  O   UNL     1      48.436  26.937  -0.667  0.00  0.00    -0.302 OA
ATOM     31  H   UNL     1      47.656  27.474  -0.379  0.00  0.00    +0.222 HD
ENDBRANCH  26  30
ENDBRANCH  25  26
ENDBRANCH  21  25
ENDBRANCH  20  21
ENDBRANCH  19  20
ENDBRANCH   4  19
TORSDOF 11
ENDMDL
MODEL 20
REMARK VINA RESULT:    -6.483      6.309      9.484
REMARK INTER + INTRA:         -11.048
REMARK INTER:                  -9.200
REMARK INTRA:                  -1.848
REMARK UNBOUND:                -1.343
REMARK  Name = UDP
REMARK  11 active torsions:
REMARK  status: ('A' for Active; 'I' for Inactive)
REMARK    1  A    between atoms: N_1  and  C_9
REMARK    2  A    between atoms: C_10  and  O_11
REMARK    3  A    between atoms: C_12  and  O_15
REMARK    4  A    between atoms: C_13  and  C_16
REMARK    5  A    between atoms: C_16  and  O_17
REMARK    6  A    between atoms: O_17  and  P_18
REMARK    7  A    between atoms: P_18  and  O_20
REMARK    8  A    between atoms: P_18  and  O_21
REMARK    9  A    between atoms: O_21  and  P_22
REMARK   10  A    between atoms: P_22  and  O_24
REMARK   11  A    between atoms: P_22  and  O_25
REMARK                            x       y       z     vdW  Elec       q    Type
REMARK                         _______ _______ _______ _____ _____    ______ ____
ROOT
ATOM      1  C   UNL     1      54.896  13.454  -1.551  0.00  0.00    +0.255 C 
ATOM      2  C   UNL     1      53.723  13.918  -2.433  0.00  0.00    +0.195 C 
ATOM      3  C   UNL     1      54.261  15.158  -3.123  0.00  0.00    +0.178 C 
ATOM      4  C   UNL     1      55.767  15.013  -2.945  0.00  0.00    +0.178 C 
ATOM      5  O   UNL     1      55.993  14.324  -1.738  0.00  0.00    -0.346 OA
ENDROOT
BRANCH   1   6
ATOM      6  N   UNL     1      54.507  13.417  -0.125  0.00  0.00    -0.271 N 
ATOM      7  C   UNL     1      54.252  12.233   0.527  0.00  0.00    +0.331 A 
ATOM      8  N   UNL     1      53.915  12.235   1.847  0.00  0.00    -0.275 N 
ATOM      9  C   UNL     1      53.836  13.394   2.551  0.00  0.00    +0.254 A 
ATOM     10  C   UNL     1      54.105  14.604   1.922  0.00  0.00    +0.088 A 
ATOM     11  C   UNL     1      54.448  14.593   0.572  0.00  0.00    +0.098 A 
ATOM     12  O   UNL     1      54.333  11.132  -0.083  0.00  0.00    -0.246 OA
ATOM     13  O   UNL     1      53.522  13.374   3.771  0.00  0.00    -0.268 OA
ATOM     14  H   UNL     1      53.718  11.328   2.330  0.00  0.00    +0.173 HD
ENDBRANCH   1   6
BRANCH   2  15
ATOM     15  O   UNL     1      53.337  12.914  -3.344  0.00  0.00    -0.385 OA
ATOM     16  H   UNL     1      52.395  13.085  -3.611  0.00  0.00    +0.210 HD
ENDBRANCH   2  15
BRANCH   3  17
ATOM     17  O   UNL     1      53.920  15.214  -4.485  0.00  0.00    -0.386 OA
ATOM     18  H   UNL     1      53.595  14.308  -4.728  0.00  0.00    +0.210 HD
ENDBRANCH   3  17
BRANCH   4  19
ATOM     19  C   UNL     1      56.473  16.371  -2.913  0.00  0.00    +0.206 C 
BRANCH  19  20
ATOM     20  O   UNL     1      55.893  17.213  -3.881  0.00  0.00    -0.284 OA
BRANCH  20  21
ATOM     21  P   UNL     1      57.148  17.961  -4.757  0.00  0.00    +0.483 P 
ATOM     22  O   UNL     1      56.547  19.066  -5.598  0.00  0.00    -0.227 OA
BRANCH  21  23
ATOM     23  O   UNL     1      58.267  18.632  -3.673  0.00  0.00    -0.302 OA
ATOM     24  H   UNL     1      58.639  17.857  -3.181  0.00  0.00    +0.222 HD
ENDBRANCH  21  23
BRANCH  21  25
ATOM     25  O   UNL     1      57.882  16.808  -5.773  0.00  0.00    -0.186 OA
BRANCH  25  26
ATOM     26  P   UNL     1      56.861  16.574  -7.114  0.00  0.00    +0.481 P 
ATOM     27  O   UNL     1      57.325  15.346  -7.864  0.00  0.00    -0.227 OA
BRANCH  26  28
ATOM     28  O   UNL     1      55.257  16.343  -6.623  0.00  0.00    -0.302 OA
ATOM     29  H   UNL     1      55.160  16.894  -5.805  0.00  0.00    +0.222 HD
ENDBRANCH  26  28
BRANCH  26  30
ATOM     30  O   UNL     1      56.952  17.910  -8.149  0.00  0.00    -0.302 OA
ATOM     31  H   UNL     1      56.226  18.513  -7.848  0.00  0.00    +0.222 HD
ENDBRANCH  26  30
ENDBRANCH  25  26
ENDBRANCH  21  25
ENDBRANCH  20  21
ENDBRANCH  19  20
ENDBRANCH   4  19
TORSDOF 11
ENDMDL
