REMARK  Name = teste_validacao_ia\MutanteIA_Top3.pdb
REMARK  11 active torsions:
REMARK  status: ('A' for Active; 'I' for Inactive)
REMARK    1  A    between atoms: C1_1  and  C2_2
REMARK    2  A    between atoms: C4_4  and  C5_5
REMARK    3  A    between atoms: C6_6  and  C7_7
REMARK    4  A    between atoms: C7_7  and  C8_10
REMARK    5  A    between atoms: C8_10  and  C9_13
REMARK    6  A    between atoms: C9_13  and  C10_16
REMARK    7  A    between atoms: C11_20  and  C12_21
REMARK    8  A    between atoms: C16_26  and  C17_27
REMARK    9  A    between atoms: C17_27  and  C18_29
REMARK   10  A    between atoms: C18_29  and  C19_30
REMARK   11  A    between atoms: C18_29  and  C20_31
REMARK                            x       y       z     vdW  Elec       q    Type
REMARK                         _______ _______ _______ _____ _____    ______ ____
ROOT
ATOM      1  C1  UNL     1      -1.060   5.507  -1.368  0.00  0.00    +0.000 C 
ATOM      2  C2  UNL     1      -0.838   4.174  -0.722  0.00  0.00    +0.000 C 
ATOM      3  C3  UNL     1      -0.598   3.051  -1.501  0.00  0.00    +0.000 C 
ATOM      4  C4  UNL     1      -0.389   1.818  -0.872  0.00  0.00    +0.000 C 
ATOM      5  C11 UNL     1      -0.411   1.732   0.532  0.00  0.00    +0.000 C 
ATOM      6  C21 UNL     1      -0.672   2.920   1.213  0.00  0.00    +0.000 C 
ATOM      7  N1  UNL     1      -0.892   4.118   0.626  0.00  0.00    +0.000 NA
ENDROOT
BRANCH   5   8
ATOM      8  C12 UNL     1      -0.192   0.408   1.250  0.00  0.00    +0.000 C 
ATOM      9  C13 UNL     1       0.415   0.497   2.671  0.00  0.00    +0.000 C 
ATOM     10  C14 UNL     1      -0.693   0.113   3.652  0.00  0.00    +0.000 C 
ATOM     11  C15 UNL     1      -1.966   0.077   2.828  0.00  0.00    +0.000 C 
ATOM     12  F6  UNL     1      -2.862  -0.785   3.356  0.00  0.00    +0.000 F 
ATOM     13  C16 UNL     1      -1.526  -0.340   1.437  0.00  0.00    +0.000 C 
BRANCH  13  14
ATOM     14  C17 UNL     1      -1.355  -1.854   1.353  0.00  0.00    +0.000 C 
ATOM     15  O1  UNL     1      -0.251  -2.389   1.474  0.00  0.00    +0.000 OA
BRANCH  14  16
ATOM     16  C18 UNL     1      -2.609  -2.673   1.056  0.00  0.00    +0.000 C 
ATOM     17  C19 UNL     1      -2.700  -2.917  -0.446  0.00  0.00    +0.000 C 
ATOM     18  C20 UNL     1      -2.592  -3.984   1.834  0.00  0.00    +0.000 C 
ENDBRANCH  14  16
ENDBRANCH  13  14
ENDBRANCH   5   8
BRANCH   4  19
ATOM     19  C5  UNL     1      -0.171   0.647  -1.727  0.00  0.00    +0.000 C 
ATOM     20  C6  UNL     1       0.969   0.254  -2.324  0.00  0.00    +0.000 C 
BRANCH  20  21
ATOM     21  C7  UNL     1       2.406   0.789  -2.323  0.00  0.00    +0.000 C 
ATOM     22 CL1  UNL     1       2.432   1.983  -3.725  0.00  0.00    +0.000 Cl
ATOM     23 CL2  UNL     1       2.751   1.814  -0.866  0.00  0.00    +0.000 Cl
BRANCH  21  24
ATOM     24  C8  UNL     1       3.532  -0.319  -2.503  0.00  0.00    +0.000 C 
ATOM     25 CL3  UNL     1       3.330  -1.143  -4.137  0.00  0.00    +0.000 Cl
ATOM     26 CL4  UNL     1       5.184   0.457  -2.590  0.00  0.00    +0.000 Cl
BRANCH  24  27
ATOM     27  C9  UNL     1       3.461  -1.379  -1.382  0.00  0.00    +0.000 C 
ATOM     28  F1  UNL     1       2.237  -1.996  -1.440  0.00  0.00    +0.000 F 
ATOM     29  F2  UNL     1       3.490  -0.775  -0.157  0.00  0.00    +0.000 F 
BRANCH  27  30
ATOM     30  C10 UNL     1       4.545  -2.457  -1.412  0.00  0.00    +0.000 C 
ATOM     31  F3  UNL     1       4.359  -3.355  -0.409  0.00  0.00    +0.000 F 
ATOM     32  F4  UNL     1       4.550  -3.166  -2.563  0.00  0.00    +0.000 F 
ATOM     33  F5  UNL     1       5.790  -1.958  -1.247  0.00  0.00    +0.000 F 
ENDBRANCH  27  30
ENDBRANCH  24  27
ENDBRANCH  21  24
ENDBRANCH  20  21
ENDBRANCH   4  19
TORSDOF 8
