REMARK  Name = teste_validacao_ia\MutanteIA_Top5.pdb
REMARK  9 active torsions:
REMARK  status: ('A' for Active; 'I' for Inactive)
REMARK    1  A    between atoms: C1_1  and  C2_2
REMARK    2  A    between atoms: C4_4  and  C5_5
REMARK    3  A    between atoms: C6_6  and  C7_7
REMARK    4  A    between atoms: C7_7  and  C8_10
REMARK    5  A    between atoms: C9_14  and  C10_15
REMARK    6  A    between atoms: C14_20  and  C15_21
REMARK    7  A    between atoms: C15_21  and  C16_23
REMARK    8  A    between atoms: C16_23  and  C17_24
REMARK    9  A    between atoms: C16_23  and  C18_25
REMARK                            x       y       z     vdW  Elec       q    Type
REMARK                         _______ _______ _______ _____ _____    ______ ____
ROOT
ATOM      1  C1  UNL     1      -2.421  -4.521   0.320  0.00  0.00    +0.000 C 
ATOM      2  C2  UNL     1      -1.750  -3.188   0.455  0.00  0.00    +0.000 C 
ATOM      3  C3  UNL     1      -2.485  -2.017   0.351  0.00  0.00    +0.000 C 
ATOM      4  C4  UNL     1      -1.838  -0.777   0.483  0.00  0.00    +0.000 C 
ATOM      5  C9  UNL     1      -0.446  -0.729   0.691  0.00  0.00    +0.000 C 
ATOM      6  C19 UNL     1       0.178  -1.974   0.813  0.00  0.00    +0.000 C 
ATOM      7  N1  UNL     1      -0.427  -3.180   0.702  0.00  0.00    +0.000 NA
ENDROOT
BRANCH   5   8
ATOM      8  C10 UNL     1       0.350   0.552   0.884  0.00  0.00    +0.000 C 
ATOM      9  C11 UNL     1      -0.013   1.775   0.003  0.00  0.00    +0.000 C 
ATOM     10  C12 UNL     1       1.240   2.654  -0.068  0.00  0.00    +0.000 C 
ATOM     11  C13 UNL     1       2.242   1.982   0.853  0.00  0.00    +0.000 C 
ATOM     12  F4  UNL     1       3.509   2.237   0.470  0.00  0.00    +0.000 F 
ATOM     13  C14 UNL     1       1.897   0.501   0.773  0.00  0.00    +0.000 C 
BRANCH  13  14
ATOM     14  C15 UNL     1       2.444  -0.068  -0.539  0.00  0.00    +0.000 C 
ATOM     15  O1  UNL     1       1.728  -0.221  -1.528  0.00  0.00    +0.000 OA
BRANCH  14  16
ATOM     16  C16 UNL     1       3.919  -0.464  -0.561  0.00  0.00    +0.000 C 
ATOM     17  C17 UNL     1       4.044  -1.976  -0.430  0.00  0.00    +0.000 C 
ATOM     18  C18 UNL     1       4.578   0.039  -1.842  0.00  0.00    +0.000 C 
ENDBRANCH  14  16
ENDBRANCH  13  14
ENDBRANCH   5   8
BRANCH   4  19
ATOM     19  C5  UNL     1      -2.690   0.419   0.459  0.00  0.00    +0.000 C 
ATOM     20  C6  UNL     1      -3.353   0.793  -0.649  0.00  0.00    +0.000 C 
BRANCH  20  21
ATOM     21  C7  UNL     1      -4.252   2.008  -0.820  0.00  0.00    +0.000 C 
ATOM     22 CL1  UNL     1      -5.860   1.378  -1.372  0.00  0.00    +0.000 Cl
ATOM     23 CL2  UNL     1      -3.560   2.969  -2.193  0.00  0.00    +0.000 Cl
BRANCH  21  24
ATOM     24  C8  UNL     1      -4.446   2.925   0.410  0.00  0.00    +0.000 C 
ATOM     25  F1  UNL     1      -5.262   3.976   0.151  0.00  0.00    +0.000 F 
ATOM     26  F2  UNL     1      -4.987   2.258   1.461  0.00  0.00    +0.000 F 
ATOM     27  F3  UNL     1      -3.268   3.442   0.848  0.00  0.00    +0.000 F 
ENDBRANCH  21  24
ENDBRANCH  20  21
ENDBRANCH   4  19
TORSDOF 6
