REMARK  Name = teste_validacao_ia\MutanteIA_Top1.pdb
REMARK  10 active torsions:
REMARK  status: ('A' for Active; 'I' for Inactive)
REMARK    1  A    between atoms: C1_1  and  C2_2
REMARK    2  A    between atoms: C4_4  and  C5_5
REMARK    3  A    between atoms: C6_6  and  C7_7
REMARK    4  A    between atoms: C7_7  and  C8_10
REMARK    5  A    between atoms: C8_10  and  C9_13
REMARK    6  A    between atoms: C10_17  and  C11_18
REMARK    7  A    between atoms: C15_23  and  C16_24
REMARK    8  A    between atoms: C16_24  and  C17_26
REMARK    9  A    between atoms: C17_26  and  C18_27
REMARK   10  A    between atoms: C17_26  and  C19_28
REMARK                            x       y       z     vdW  Elec       q    Type
REMARK                         _______ _______ _______ _____ _____    ______ ____
ROOT
ATOM      1  C1  UNL     1       1.902  -4.736  -1.251  0.00  0.00    +0.000 C 
ATOM      2  C2  UNL     1       1.080  -3.589  -0.748  0.00  0.00    +0.000 C 
ATOM      3  C3  UNL     1       1.695  -2.438  -0.275  0.00  0.00    +0.000 C 
ATOM      4  C4  UNL     1       0.912  -1.372   0.193  0.00  0.00    +0.000 C 
ATOM      5  C10 UNL     1      -0.489  -1.480   0.171  0.00  0.00    +0.000 C 
ATOM      6  C20 UNL     1      -0.997  -2.691  -0.310  0.00  0.00    +0.000 C 
ATOM      7  N1  UNL     1      -0.259  -3.729  -0.763  0.00  0.00    +0.000 NA
ENDROOT
BRANCH   5   8
ATOM      8  C11 UNL     1      -1.482  -0.428   0.632  0.00  0.00    +0.000 C 
ATOM      9  C12 UNL     1      -1.386  -0.095   2.139  0.00  0.00    +0.000 C 
ATOM     10  C13 UNL     1      -1.185   1.412   2.226  0.00  0.00    +0.000 C 
ATOM     11  C14 UNL     1      -1.817   1.946   0.954  0.00  0.00    +0.000 C 
ATOM     12  F4  UNL     1      -1.309   3.165   0.663  0.00  0.00    +0.000 F 
ATOM     13  C15 UNL     1      -1.416   0.926  -0.097  0.00  0.00    +0.000 C 
BRANCH  13  14
ATOM     14  C16 UNL     1      -2.167   1.045  -1.419  0.00  0.00    +0.000 C 
ATOM     15  O1  UNL     1      -1.532   1.415  -2.418  0.00  0.00    +0.000 OA
BRANCH  14  16
ATOM     16  C17 UNL     1      -3.637   0.662  -1.612  0.00  0.00    +0.000 C 
ATOM     17  C18 UNL     1      -3.763  -0.784  -2.085  0.00  0.00    +0.000 C 
ATOM     18  C19 UNL     1      -4.601   0.961  -0.477  0.00  0.00    +0.000 C 
ENDBRANCH  14  16
ENDBRANCH  13  14
ENDBRANCH   5   8
BRANCH   4  19
ATOM     19  C5  UNL     1       1.643  -0.205   0.706  0.00  0.00    +0.000 C 
ATOM     20  C6  UNL     1       2.269   0.648  -0.126  0.00  0.00    +0.000 C 
BRANCH  20  21
ATOM     21  C7  UNL     1       3.124   1.881   0.206  0.00  0.00    +0.000 C 
ATOM     22 CL1  UNL     1       2.893   2.331   1.951  0.00  0.00    +0.000 Cl
ATOM     23 CL2  UNL     1       2.354   3.239  -0.730  0.00  0.00    +0.000 Cl
BRANCH  21  24
ATOM     24  C8  UNL     1       4.633   1.694  -0.156  0.00  0.00    +0.000 C 
ATOM     25 CL3  UNL     1       4.841   1.252  -1.928  0.00  0.00    +0.000 Cl
ATOM     26 CL4  UNL     1       5.327   0.252   0.754  0.00  0.00    +0.000 Cl
BRANCH  24  27
ATOM     27  C9  UNL     1       5.497   2.923   0.143  0.00  0.00    +0.000 C 
ATOM     28  F1  UNL     1       5.521   3.245   1.456  0.00  0.00    +0.000 F 
ATOM     29  F2  UNL     1       5.097   4.026  -0.527  0.00  0.00    +0.000 F 
ATOM     30  F3  UNL     1       6.793   2.714  -0.212  0.00  0.00    +0.000 F 
ENDBRANCH  24  27
ENDBRANCH  21  24
ENDBRANCH  20  21
ENDBRANCH   4  19
TORSDOF 7
