REMARK  Name = teste_validacao_ia\MutanteIA_Top4.pdb
REMARK  9 active torsions:
REMARK  status: ('A' for Active; 'I' for Inactive)
REMARK    1  A    between atoms: C1_1  and  C2_2
REMARK    2  A    between atoms: C4_4  and  C5_5
REMARK    3  A    between atoms: C6_6  and  C7_7
REMARK    4  A    between atoms: C7_7  and  C8_10
REMARK    5  A    between atoms: C9_14  and  C10_15
REMARK    6  A    between atoms: C14_20  and  C15_21
REMARK    7  A    between atoms: C15_21  and  C16_23
REMARK    8  A    between atoms: C16_23  and  C17_24
REMARK    9  A    between atoms: C16_23  and  C18_25
REMARK                            x       y       z     vdW  Elec       q    Type
REMARK                         _______ _______ _______ _____ _____    ______ ____
ROOT
ATOM      1  C1  UNL     1       2.402  -1.279  -3.926  0.00  0.00    +0.000 C 
ATOM      2  C2  UNL     1       1.677  -1.061  -2.632  0.00  0.00    +0.000 C 
ATOM      3  C3  UNL     1       1.919   0.075  -1.874  0.00  0.00    +0.000 C 
ATOM      4  C4  UNL     1       1.226   0.252  -0.672  0.00  0.00    +0.000 C 
ATOM      5  C9  UNL     1       0.287  -0.709  -0.250  0.00  0.00    +0.000 C 
ATOM      6  C19 UNL     1       0.137  -1.820  -1.080  0.00  0.00    +0.000 C 
ATOM      7  N1  UNL     1       0.799  -2.007  -2.246  0.00  0.00    +0.000 NA
ENDROOT
BRANCH   5   8
ATOM      8  C10 UNL     1      -0.491  -0.565   1.044  0.00  0.00    +0.000 C 
ATOM      9  C11 UNL     1       0.102  -1.468   2.153  0.00  0.00    +0.000 C 
ATOM     10  C12 UNL     1      -1.095  -2.085   2.874  0.00  0.00    +0.000 C 
ATOM     11  C13 UNL     1      -2.130  -2.208   1.770  0.00  0.00    +0.000 C 
ATOM     12  F3  UNL     1      -1.739  -3.224   0.958  0.00  0.00    +0.000 F 
ATOM     13  C14 UNL     1      -2.010  -0.865   1.058  0.00  0.00    +0.000 C 
BRANCH  13  14
ATOM     14  C15 UNL     1      -2.774  -0.773  -0.253  0.00  0.00    +0.000 C 
ATOM     15  O1  UNL     1      -3.456  -1.711  -0.668  0.00  0.00    +0.000 OA
BRANCH  14  16
ATOM     16  C16 UNL     1      -2.777   0.579  -0.967  0.00  0.00    +0.000 C 
ATOM     17  C17 UNL     1      -3.972   1.397  -0.491  0.00  0.00    +0.000 C 
ATOM     18  C18 UNL     1      -2.810   0.391  -2.481  0.00  0.00    +0.000 C 
ENDBRANCH  14  16
ENDBRANCH  13  14
ENDBRANCH   5   8
BRANCH   4  19
ATOM     19  C5  UNL     1       1.546   1.450   0.114  0.00  0.00    +0.000 C 
ATOM     20  C6  UNL     1       2.460   1.402   1.098  0.00  0.00    +0.000 C 
BRANCH  20  21
ATOM     21  C7  UNL     1       2.931   2.517   2.024  0.00  0.00    +0.000 C 
ATOM     22 CL1  UNL     1       1.989   4.044   1.784  0.00  0.00    +0.000 Cl
ATOM     23 CL2  UNL     1       2.517   1.952   3.707  0.00  0.00    +0.000 Cl
BRANCH  21  24
ATOM     24  C8  UNL     1       4.461   2.786   1.921  0.00  0.00    +0.000 C 
ATOM     25  F1  UNL     1       4.858   3.713   2.836  0.00  0.00    +0.000 F 
ATOM     26  F2  UNL     1       5.158   1.651   2.213  0.00  0.00    +0.000 F 
ATOM     27 CL3  UNL     1       4.975   3.339   0.300  0.00  0.00    +0.000 Cl
ENDBRANCH  21  24
ENDBRANCH  20  21
ENDBRANCH   4  19
TORSDOF 6
