REMARK  Name = teste_validacao_ia\MutanteIA_Top2.pdb
REMARK  9 active torsions:
REMARK  status: ('A' for Active; 'I' for Inactive)
REMARK    1  A    between atoms: C1_1  and  C2_2
REMARK    2  A    between atoms: C4_4  and  C5_5
REMARK    3  A    between atoms: C6_6  and  C7_7
REMARK    4  A    between atoms: C7_7  and  C8_10
REMARK    5  A    between atoms: C9_14  and  C10_15
REMARK    6  A    between atoms: C14_20  and  C15_21
REMARK    7  A    between atoms: C15_21  and  C16_23
REMARK    8  A    between atoms: C16_23  and  C17_24
REMARK    9  A    between atoms: C16_23  and  C18_25
REMARK                            x       y       z     vdW  Elec       q    Type
REMARK                         _______ _______ _______ _____ _____    ______ ____
ROOT
ATOM      1  C1  UNL     1       1.854  -3.827   3.103  0.00  0.00    +0.000 C 
ATOM      2  C2  UNL     1       1.409  -2.891   2.021  0.00  0.00    +0.000 C 
ATOM      3  C3  UNL     1       1.755  -1.547   2.074  0.00  0.00    +0.000 C 
ATOM      4  C4  UNL     1       1.323  -0.688   1.055  0.00  0.00    +0.000 C 
ATOM      5  C9  UNL     1       0.549  -1.194   0.000  0.00  0.00    +0.000 C 
ATOM      6  C19 UNL     1       0.273  -2.561   0.040  0.00  0.00    +0.000 C 
ATOM      7  N1  UNL     1       0.678  -3.409   1.012  0.00  0.00    +0.000 NA
ENDROOT
BRANCH   5   8
ATOM      8  C10 UNL     1       0.026  -0.326  -1.132  0.00  0.00    +0.000 C 
ATOM      9  C11 UNL     1       0.475  -0.829  -2.524  0.00  0.00    +0.000 C 
ATOM     10  C12 UNL     1      -0.803  -1.224  -3.252  0.00  0.00    +0.000 C 
ATOM     11  C13 UNL     1      -1.836  -0.278  -2.672  0.00  0.00    +0.000 C 
ATOM     12  F2  UNL     1      -1.623   0.960  -3.190  0.00  0.00    +0.000 F 
ATOM     13  C14 UNL     1      -1.525  -0.272  -1.183  0.00  0.00    +0.000 C 
BRANCH  13  14
ATOM     14  C15 UNL     1      -2.107   0.939  -0.457  0.00  0.00    +0.000 C 
ATOM     15  O1  UNL     1      -1.449   1.543   0.393  0.00  0.00    +0.000 OA
BRANCH  14  16
ATOM     16  C16 UNL     1      -3.566   1.317  -0.736  0.00  0.00    +0.000 C 
ATOM     17  C17 UNL     1      -3.923   2.651  -0.080  0.00  0.00    +0.000 C 
ATOM     18  C18 UNL     1      -4.505   0.219  -0.244  0.00  0.00    +0.000 C 
ENDBRANCH  14  16
ENDBRANCH  13  14
ENDBRANCH   5   8
BRANCH   4  19
ATOM     19  C5  UNL     1       1.719   0.722   1.138  0.00  0.00    +0.000 C 
ATOM     20  C6  UNL     1       2.932   1.127   0.725  0.00  0.00    +0.000 C 
BRANCH  20  21
ATOM     21  C7  UNL     1       3.515   2.538   0.733  0.00  0.00    +0.000 C 
ATOM     22 CL1  UNL     1       4.150   2.825  -0.959  0.00  0.00    +0.000 Cl
ATOM     23 CL2  UNL     1       2.221   3.794   0.948  0.00  0.00    +0.000 Cl
BRANCH  21  24
ATOM     24  C8  UNL     1       4.656   2.751   1.785  0.00  0.00    +0.000 C 
ATOM     25  F1  UNL     1       5.147   4.021   1.699  0.00  0.00    +0.000 F 
ATOM     26 CL3  UNL     1       4.080   2.514   3.478  0.00  0.00    +0.000 Cl
ATOM     27 CL4  UNL     1       6.049   1.628   1.549  0.00  0.00    +0.000 Cl
ENDBRANCH  21  24
ENDBRANCH  20  21
ENDBRANCH   4  19
TORSDOF 6
