MODEL 1
REMARK VINA RESULT:    -5.952      0.000      0.000
REMARK INTER + INTRA:          -9.867
REMARK INTER:                  -8.039
REMARK INTRA:                  -1.827
REMARK UNBOUND:                -1.827
REMARK  Name = teste_validacao_ia\MutanteIA_Top5.pdb
REMARK  9 active torsions:
REMARK  status: ('A' for Active; 'I' for Inactive)
REMARK    1  A    between atoms: C1_1  and  C2_2
REMARK    2  A    between atoms: C4_4  and  C5_5
REMARK    3  A    between atoms: C6_6  and  C7_7
REMARK    4  A    between atoms: C7_7  and  C8_10
REMARK    5  A    between atoms: C9_14  and  C10_15
REMARK    6  A    between atoms: C14_20  and  C15_21
REMARK    7  A    between atoms: C15_21  and  C16_23
REMARK    8  A    between atoms: C16_23  and  C17_24
REMARK    9  A    between atoms: C16_23  and  C18_25
REMARK                            x       y       z     vdW  Elec       q    Type
REMARK                         _______ _______ _______ _____ _____    ______ ____
ROOT
ATOM      1  C1  UNL     1      -3.170   3.239  18.676  0.00  0.00    +0.000 C 
ATOM      2  C2  UNL     1      -2.027   2.336  18.322  0.00  0.00    +0.000 C 
ATOM      3  C3  UNL     1      -0.781   2.520  18.900  0.00  0.00    +0.000 C 
ATOM      4  C4  UNL     1       0.277   1.660  18.558  0.00  0.00    +0.000 C 
ATOM      5  C9  UNL     1       0.074   0.638  17.611  0.00  0.00    +0.000 C 
ATOM      6  C19 UNL     1      -1.233   0.531  17.126  0.00  0.00    +0.000 C 
ATOM      7  N1  UNL     1      -2.270   1.339  17.451  0.00  0.00    +0.000 NA
ENDROOT
BRANCH   5   8
ATOM      8  C10 UNL     1       1.133  -0.369  17.194  0.00  0.00    +0.000 C 
ATOM      9  C11 UNL     1       0.829  -1.286  15.981  0.00  0.00    +0.000 C 
ATOM     10  C12 UNL     1       1.695  -2.539  16.148  0.00  0.00    +0.000 C 
ATOM     11  C13 UNL     1       2.546  -2.266  17.375  0.00  0.00    +0.000 C 
ATOM     12  F4  UNL     1       2.893  -3.410  17.997  0.00  0.00    +0.000 F 
ATOM     13  C14 UNL     1       1.677  -1.370  18.248  0.00  0.00    +0.000 C 
BRANCH  13  14
ATOM     14  C15 UNL     1       0.619  -2.229  18.946  0.00  0.00    +0.000 C 
ATOM     15  O1  UNL     1      -0.205  -2.886  18.312  0.00  0.00    +0.000 OA
BRANCH  14  16
ATOM     16  C16 UNL     1       0.614  -2.216  20.474  0.00  0.00    +0.000 C 
ATOM     17  C17 UNL     1       2.039  -2.055  20.988  0.00  0.00    +0.000 C 
ATOM     18  C18 UNL     1      -0.291  -1.099  20.986  0.00  0.00    +0.000 C 
ENDBRANCH  14  16
ENDBRANCH  13  14
ENDBRANCH   5   8
BRANCH   4  19
ATOM     19  C5  UNL     1       1.543   1.850  19.278  0.00  0.00    +0.000 C 
ATOM     20  C6  UNL     1       1.576   2.066  20.605  0.00  0.00    +0.000 C 
BRANCH  20  21
ATOM     21  C7  UNL     1       2.805   2.293  21.471  0.00  0.00    +0.000 C 
ATOM     22 CL1  UNL     1       2.723   4.015  22.031  0.00  0.00    +0.000 Cl
ATOM     23 CL2  UNL     1       4.240   2.161  20.371  0.00  0.00    +0.000 Cl
BRANCH  21  24
ATOM     24  C8  UNL     1       2.997   1.358  22.688  0.00  0.00    +0.000 C 
ATOM     25  F1  UNL     1       3.285   2.038  23.825  0.00  0.00    +0.000 F 
ATOM     26  F2  UNL     1       1.885   0.621  22.943  0.00  0.00    +0.000 F 
ATOM     27  F3  UNL     1       4.009   0.472  22.494  0.00  0.00    +0.000 F 
ENDBRANCH  21  24
ENDBRANCH  20  21
ENDBRANCH   4  19
TORSDOF 6
ENDMDL
MODEL 2
REMARK VINA RESULT:    -5.900      3.842      5.454
REMARK INTER + INTRA:          -9.796
REMARK INTER:                  -8.386
REMARK INTRA:                  -1.410
REMARK UNBOUND:                -1.827
REMARK  Name = teste_validacao_ia\MutanteIA_Top5.pdb
REMARK  9 active torsions:
REMARK  status: ('A' for Active; 'I' for Inactive)
REMARK    1  A    between atoms: C1_1  and  C2_2
REMARK    2  A    between atoms: C4_4  and  C5_5
REMARK    3  A    between atoms: C6_6  and  C7_7
REMARK    4  A    between atoms: C7_7  and  C8_10
REMARK    5  A    between atoms: C9_14  and  C10_15
REMARK    6  A    between atoms: C14_20  and  C15_21
REMARK    7  A    between atoms: C15_21  and  C16_23
REMARK    8  A    between atoms: C16_23  and  C17_24
REMARK    9  A    between atoms: C16_23  and  C18_25
REMARK                            x       y       z     vdW  Elec       q    Type
REMARK                         _______ _______ _______ _____ _____    ______ ____
ROOT
ATOM      1  C1  UNL     1       1.874   4.751  19.113  0.00  0.00    +0.000 C 
ATOM      2  C2  UNL     1       1.559   3.410  19.703  0.00  0.00    +0.000 C 
ATOM      3  C3  UNL     1       0.252   2.950  19.745  0.00  0.00    +0.000 C 
ATOM      4  C4  UNL     1      -0.023   1.689  20.299  0.00  0.00    +0.000 C 
ATOM      5  C9  UNL     1       1.023   0.913  20.834  0.00  0.00    +0.000 C 
ATOM      6  C19 UNL     1       2.299   1.468  20.702  0.00  0.00    +0.000 C 
ATOM      7  N1  UNL     1       2.589   2.674  20.160  0.00  0.00    +0.000 NA
ENDROOT
BRANCH   5   8
ATOM      8  C10 UNL     1       0.847  -0.477  21.424  0.00  0.00    +0.000 C 
ATOM      9  C11 UNL     1       2.066  -1.132  22.123  0.00  0.00    +0.000 C 
ATOM     10  C12 UNL     1       1.846  -2.647  22.063  0.00  0.00    +0.000 C 
ATOM     11  C13 UNL     1       0.472  -2.819  21.441  0.00  0.00    +0.000 C 
ATOM     12  F4  UNL     1       0.374  -3.992  20.785  0.00  0.00    +0.000 F 
ATOM     13  C14 UNL     1       0.323  -1.620  20.515  0.00  0.00    +0.000 C 
BRANCH  13  14
ATOM     14  C15 UNL     1       1.134  -1.870  19.240  0.00  0.00    +0.000 C 
ATOM     15  O1  UNL     1       2.139  -2.580  19.240  0.00  0.00    +0.000 OA
BRANCH  14  16
ATOM     16  C16 UNL     1       0.654  -1.178  17.966  0.00  0.00    +0.000 C 
ATOM     17  C17 UNL     1       1.775  -0.316  17.400  0.00  0.00    +0.000 C 
ATOM     18  C18 UNL     1       0.184  -2.215  16.951  0.00  0.00    +0.000 C 
ENDBRANCH  14  16
ENDBRANCH  13  14
ENDBRANCH   5   8
BRANCH   4  19
ATOM     19  C5  UNL     1      -1.414   1.223  20.224  0.00  0.00    +0.000 C 
ATOM     20  C6  UNL     1      -1.997   0.924  19.050  0.00  0.00    +0.000 C 
BRANCH  20  21
ATOM     21  C7  UNL     1      -3.424   0.448  18.824  0.00  0.00    +0.000 C 
ATOM     22 CL1  UNL     1      -3.369  -0.665  17.393  0.00  0.00    +0.000 Cl
ATOM     23 CL2  UNL     1      -4.378   1.906  18.324  0.00  0.00    +0.000 Cl
BRANCH  21  24
ATOM     24  C8  UNL     1      -4.132  -0.257  20.005  0.00  0.00    +0.000 C 
ATOM     25  F1  UNL     1      -3.347  -1.187  20.601  0.00  0.00    +0.000 F 
ATOM     26  F2  UNL     1      -4.503   0.621  20.971  0.00  0.00    +0.000 F 
ATOM     27  F3  UNL     1      -5.265  -0.895  19.609  0.00  0.00    +0.000 F 
ENDBRANCH  21  24
ENDBRANCH  20  21
ENDBRANCH   4  19
TORSDOF 6
ENDMDL
MODEL 3
REMARK VINA RESULT:    -5.866     21.938     24.936
REMARK INTER + INTRA:          -9.751
REMARK INTER:                  -8.065
REMARK INTRA:                  -1.686
REMARK UNBOUND:                -1.827
REMARK  Name = teste_validacao_ia\MutanteIA_Top5.pdb
REMARK  9 active torsions:
REMARK  status: ('A' for Active; 'I' for Inactive)
REMARK    1  A    between atoms: C1_1  and  C2_2
REMARK    2  A    between atoms: C4_4  and  C5_5
REMARK    3  A    between atoms: C6_6  and  C7_7
REMARK    4  A    between atoms: C7_7  and  C8_10
REMARK    5  A    between atoms: C9_14  and  C10_15
REMARK    6  A    between atoms: C14_20  and  C15_21
REMARK    7  A    between atoms: C15_21  and  C16_23
REMARK    8  A    between atoms: C16_23  and  C17_24
REMARK    9  A    between atoms: C16_23  and  C18_25
REMARK                            x       y       z     vdW  Elec       q    Type
REMARK                         _______ _______ _______ _____ _____    ______ ____
ROOT
ATOM      1  C1  UNL     1      18.352  -4.477  -2.237  0.00  0.00    +0.000 C 
ATOM      2  C2  UNL     1      18.242  -5.337  -1.014  0.00  0.00    +0.000 C 
ATOM      3  C3  UNL     1      17.249  -5.102  -0.076  0.00  0.00    +0.000 C 
ATOM      4  C4  UNL     1      17.161  -5.920   1.062  0.00  0.00    +0.000 C 
ATOM      5  C9  UNL     1      18.097  -6.954   1.258  0.00  0.00    +0.000 C 
ATOM      6  C19 UNL     1      19.028  -7.114   0.227  0.00  0.00    +0.000 C 
ATOM      7  N1  UNL     1      19.123  -6.346  -0.883  0.00  0.00    +0.000 NA
ENDROOT
BRANCH   5   8
ATOM      8  C10 UNL     1      18.076  -7.921   2.431  0.00  0.00    +0.000 C 
ATOM      9  C11 UNL     1      19.381  -8.687   2.768  0.00  0.00    +0.000 C 
ATOM     10  C12 UNL     1      18.965  -9.963   3.507  0.00  0.00    +0.000 C 
ATOM     11  C13 UNL     1      17.461  -9.846   3.674  0.00  0.00    +0.000 C 
ATOM     12  F4  UNL     1      16.877 -11.059   3.738  0.00  0.00    +0.000 F 
ATOM     13  C14 UNL     1      17.006  -9.045   2.461  0.00  0.00    +0.000 C 
BRANCH  13  14
ATOM     14  C15 UNL     1      16.983  -9.964   1.237  0.00  0.00    +0.000 C 
ATOM     15  O1  UNL     1      17.997 -10.534   0.835  0.00  0.00    +0.000 OA
BRANCH  14  16
ATOM     16  C16 UNL     1      15.646 -10.125   0.516  0.00  0.00    +0.000 C 
ATOM     17  C17 UNL     1      14.515 -10.150   1.536  0.00  0.00    +0.000 C 
ATOM     18  C18 UNL     1      15.457  -8.998  -0.495  0.00  0.00    +0.000 C 
ENDBRANCH  14  16
ENDBRANCH  13  14
ENDBRANCH   5   8
BRANCH   4  19
ATOM     19  C5  UNL     1      16.029  -5.678   1.965  0.00  0.00    +0.000 C 
ATOM     20  C6  UNL     1      14.772  -6.019   1.631  0.00  0.00    +0.000 C 
BRANCH  20  21
ATOM     21  C7  UNL     1      13.511  -5.815   2.456  0.00  0.00    +0.000 C 
ATOM     22 CL1  UNL     1      12.454  -7.253   2.135  0.00  0.00    +0.000 Cl
ATOM     23 CL2  UNL     1      12.667  -4.371   1.755  0.00  0.00    +0.000 Cl
BRANCH  21  24
ATOM     24  C8  UNL     1      13.684  -5.626   3.981  0.00  0.00    +0.000 C 
ATOM     25  F1  UNL     1      14.448  -6.595   4.542  0.00  0.00    +0.000 F 
ATOM     26  F2  UNL     1      14.271  -4.440   4.283  0.00  0.00    +0.000 F 
ATOM     27  F3  UNL     1      12.492  -5.641   4.633  0.00  0.00    +0.000 F 
ENDBRANCH  21  24
ENDBRANCH  20  21
ENDBRANCH   4  19
TORSDOF 6
ENDMDL
MODEL 4
REMARK VINA RESULT:    -5.841     23.889     26.157
REMARK INTER + INTRA:          -9.718
REMARK INTER:                  -8.466
REMARK INTRA:                  -1.252
REMARK UNBOUND:                -1.827
REMARK  Name = teste_validacao_ia\MutanteIA_Top5.pdb
REMARK  9 active torsions:
REMARK  status: ('A' for Active; 'I' for Inactive)
REMARK    1  A    between atoms: C1_1  and  C2_2
REMARK    2  A    between atoms: C4_4  and  C5_5
REMARK    3  A    between atoms: C6_6  and  C7_7
REMARK    4  A    between atoms: C7_7  and  C8_10
REMARK    5  A    between atoms: C9_14  and  C10_15
REMARK    6  A    between atoms: C14_20  and  C15_21
REMARK    7  A    between atoms: C15_21  and  C16_23
REMARK    8  A    between atoms: C16_23  and  C17_24
REMARK    9  A    between atoms: C16_23  and  C18_25
REMARK                            x       y       z     vdW  Elec       q    Type
REMARK                         _______ _______ _______ _____ _____    ______ ____
ROOT
ATOM      1  C1  UNL     1      21.289  -7.784   2.796  0.00  0.00    +0.000 C 
ATOM      2  C2  UNL     1      20.103  -6.942   2.438  0.00  0.00    +0.000 C 
ATOM      3  C3  UNL     1      18.885  -7.533   2.139  0.00  0.00    +0.000 C 
ATOM      4  C4  UNL     1      17.784  -6.725   1.808  0.00  0.00    +0.000 C 
ATOM      5  C9  UNL     1      17.929  -5.325   1.754  0.00  0.00    +0.000 C 
ATOM      6  C19 UNL     1      19.194  -4.847   2.110  0.00  0.00    +0.000 C 
ATOM      7  N1  UNL     1      20.265  -5.605   2.444  0.00  0.00    +0.000 NA
ENDROOT
BRANCH   5   8
ATOM      8  C10 UNL     1      16.800  -4.356   1.445  0.00  0.00    +0.000 C 
ATOM      9  C11 UNL     1      15.359  -4.763   1.846  0.00  0.00    +0.000 C 
ATOM     10  C12 UNL     1      14.410  -3.987   0.928  0.00  0.00    +0.000 C 
ATOM     11  C13 UNL     1      15.311  -3.080   0.110  0.00  0.00    +0.000 C 
ATOM     12  F4  UNL     1      14.766  -2.798  -1.090  0.00  0.00    +0.000 F 
ATOM     13  C14 UNL     1      16.617  -3.854  -0.012  0.00  0.00    +0.000 C 
BRANCH  13  14
ATOM     14  C15 UNL     1      16.451  -4.949  -1.069  0.00  0.00    +0.000 C 
ATOM     15  O1  UNL     1      15.446  -5.659  -1.115  0.00  0.00    +0.000 OA
BRANCH  14  16
ATOM     16  C16 UNL     1      17.602  -5.142  -2.054  0.00  0.00    +0.000 C 
ATOM     17  C17 UNL     1      18.741  -4.195  -1.701  0.00  0.00    +0.000 C 
ATOM     18  C18 UNL     1      18.065  -6.596  -2.041  0.00  0.00    +0.000 C 
ENDBRANCH  14  16
ENDBRANCH  13  14
ENDBRANCH   5   8
BRANCH   4  19
ATOM     19  C5  UNL     1      16.502  -7.410   1.597  0.00  0.00    +0.000 C 
ATOM     20  C6  UNL     1      16.389  -8.459   0.765  0.00  0.00    +0.000 C 
BRANCH  20  21
ATOM     21  C7  UNL     1      15.129  -9.249   0.441  0.00  0.00    +0.000 C 
ATOM     22 CL1  UNL     1      15.193  -9.603  -1.335  0.00  0.00    +0.000 Cl
ATOM     23 CL2  UNL     1      13.735  -8.121   0.707  0.00  0.00    +0.000 Cl
BRANCH  21  24
ATOM     24  C8  UNL     1      14.894 -10.560   1.226  0.00  0.00    +0.000 C 
ATOM     25  F1  UNL     1      14.045 -10.395   2.271  0.00  0.00    +0.000 F 
ATOM     26  F2  UNL     1      14.366 -11.534   0.442  0.00  0.00    +0.000 F 
ATOM     27  F3  UNL     1      16.050 -11.061   1.736  0.00  0.00    +0.000 F 
ENDBRANCH  21  24
ENDBRANCH  20  21
ENDBRANCH   4  19
TORSDOF 6
ENDMDL
MODEL 5
REMARK VINA RESULT:    -5.841     24.283     27.214
REMARK INTER + INTRA:          -9.717
REMARK INTER:                  -8.138
REMARK INTRA:                  -1.579
REMARK UNBOUND:                -1.827
REMARK  Name = teste_validacao_ia\MutanteIA_Top5.pdb
REMARK  9 active torsions:
REMARK  status: ('A' for Active; 'I' for Inactive)
REMARK    1  A    between atoms: C1_1  and  C2_2
REMARK    2  A    between atoms: C4_4  and  C5_5
REMARK    3  A    between atoms: C6_6  and  C7_7
REMARK    4  A    between atoms: C7_7  and  C8_10
REMARK    5  A    between atoms: C9_14  and  C10_15
REMARK    6  A    between atoms: C14_20  and  C15_21
REMARK    7  A    between atoms: C15_21  and  C16_23
REMARK    8  A    between atoms: C16_23  and  C17_24
REMARK    9  A    between atoms: C16_23  and  C18_25
REMARK                            x       y       z     vdW  Elec       q    Type
REMARK                         _______ _______ _______ _____ _____    ______ ____
ROOT
ATOM      1  C1  UNL     1      20.532  -8.612   4.479  0.00  0.00    +0.000 C 
ATOM      2  C2  UNL     1      19.968  -8.011   3.227  0.00  0.00    +0.000 C 
ATOM      3  C3  UNL     1      19.105  -8.741   2.425  0.00  0.00    +0.000 C 
ATOM      4  C4  UNL     1      18.585  -8.160   1.256  0.00  0.00    +0.000 C 
ATOM      5  C9  UNL     1      18.964  -6.853   0.892  0.00  0.00    +0.000 C 
ATOM      6  C19 UNL     1      19.811  -6.208   1.798  0.00  0.00    +0.000 C 
ATOM      7  N1  UNL     1      20.313  -6.744   2.936  0.00  0.00    +0.000 NA
ENDROOT
BRANCH   5   8
ATOM      8  C10 UNL     1      18.437  -6.114  -0.327  0.00  0.00    +0.000 C 
ATOM      9  C11 UNL     1      19.004  -4.702  -0.625  0.00  0.00    +0.000 C 
ATOM     10  C12 UNL     1      17.943  -3.966  -1.450  0.00  0.00    +0.000 C 
ATOM     11  C13 UNL     1      16.857  -4.997  -1.699  0.00  0.00    +0.000 C 
ATOM     12  F4  UNL     1      15.653  -4.413  -1.859  0.00  0.00    +0.000 F 
ATOM     13  C14 UNL     1      16.907  -5.904  -0.477  0.00  0.00    +0.000 C 
BRANCH  13  14
ATOM     14  C15 UNL     1      16.222  -5.197   0.696  0.00  0.00    +0.000 C 
ATOM     15  O1  UNL     1      16.662  -4.149   1.168  0.00  0.00    +0.000 OA
BRANCH  14  16
ATOM     16  C16 UNL     1      14.977  -5.864   1.276  0.00  0.00    +0.000 C 
ATOM     17  C17 UNL     1      14.704  -7.167   0.536  0.00  0.00    +0.000 C 
ATOM     18  C18 UNL     1      15.158  -6.102   2.772  0.00  0.00    +0.000 C 
ENDBRANCH  14  16
ENDBRANCH  13  14
ENDBRANCH   5   8
BRANCH   4  19
ATOM     19  C5  UNL     1      17.602  -8.951   0.505  0.00  0.00    +0.000 C 
ATOM     20  C6  UNL     1      17.954  -9.683  -0.567  0.00  0.00    +0.000 C 
BRANCH  20  21
ATOM     21  C7  UNL     1      17.046 -10.532  -1.443  0.00  0.00    +0.000 C 
ATOM     22 CL1  UNL     1      16.218 -11.702  -0.333  0.00  0.00    +0.000 Cl
ATOM     23 CL2  UNL     1      18.133 -11.503  -2.521  0.00  0.00    +0.000 Cl
BRANCH  21  24
ATOM     24  C8  UNL     1      15.992  -9.792  -2.299  0.00  0.00    +0.000 C 
ATOM     25  F1  UNL     1      14.768  -9.773  -1.716  0.00  0.00    +0.000 F 
ATOM     26  F2  UNL     1      16.338  -8.499  -2.526  0.00  0.00    +0.000 F 
ATOM     27  F3  UNL     1      15.836 -10.367  -3.520  0.00  0.00    +0.000 F 
ENDBRANCH  21  24
ENDBRANCH  20  21
ENDBRANCH   4  19
TORSDOF 6
ENDMDL
MODEL 6
REMARK VINA RESULT:    -5.838      4.203      5.679
REMARK INTER + INTRA:          -9.713
REMARK INTER:                  -9.398
REMARK INTRA:                  -0.315
REMARK UNBOUND:                -1.827
REMARK  Name = teste_validacao_ia\MutanteIA_Top5.pdb
REMARK  9 active torsions:
REMARK  status: ('A' for Active; 'I' for Inactive)
REMARK    1  A    between atoms: C1_1  and  C2_2
REMARK    2  A    between atoms: C4_4  and  C5_5
REMARK    3  A    between atoms: C6_6  and  C7_7
REMARK    4  A    between atoms: C7_7  and  C8_10
REMARK    5  A    between atoms: C9_14  and  C10_15
REMARK    6  A    between atoms: C14_20  and  C15_21
REMARK    7  A    between atoms: C15_21  and  C16_23
REMARK    8  A    between atoms: C16_23  and  C17_24
REMARK    9  A    between atoms: C16_23  and  C18_25
REMARK                            x       y       z     vdW  Elec       q    Type
REMARK                         _______ _______ _______ _____ _____    ______ ____
ROOT
ATOM      1  C1  UNL     1       0.373   2.600  15.771  0.00  0.00    +0.000 C 
ATOM      2  C2  UNL     1       0.535   1.522  16.798  0.00  0.00    +0.000 C 
ATOM      3  C3  UNL     1      -0.556   1.077  17.529  0.00  0.00    +0.000 C 
ATOM      4  C4  UNL     1      -0.384   0.063  18.487  0.00  0.00    +0.000 C 
ATOM      5  C9  UNL     1       0.897  -0.475  18.718  0.00  0.00    +0.000 C 
ATOM      6  C19 UNL     1       1.909   0.029  17.895  0.00  0.00    +0.000 C 
ATOM      7  N1  UNL     1       1.763   0.996  16.959  0.00  0.00    +0.000 NA
ENDROOT
BRANCH   5   8
ATOM      8  C10 UNL     1       1.192  -1.597  19.700  0.00  0.00    +0.000 C 
ATOM      9  C11 UNL     1       0.001  -2.222  20.472  0.00  0.00    +0.000 C 
ATOM     10  C12 UNL     1       0.577  -2.826  21.757  0.00  0.00    +0.000 C 
ATOM     11  C13 UNL     1       2.079  -2.635  21.640  0.00  0.00    +0.000 C 
ATOM     12  F4  UNL     1       2.658  -2.544  22.854  0.00  0.00    +0.000 F 
ATOM     13  C14 UNL     1       2.237  -1.360  20.823  0.00  0.00    +0.000 C 
BRANCH  13  14
ATOM     14  C15 UNL     1       1.969  -0.153  21.726  0.00  0.00    +0.000 C 
ATOM     15  O1  UNL     1       0.876   0.026  22.262  0.00  0.00    +0.000 OA
BRANCH  14  16
ATOM     16  C16 UNL     1       3.114   0.840  21.915  0.00  0.00    +0.000 C 
ATOM     17  C17 UNL     1       3.136   1.822  20.751  0.00  0.00    +0.000 C 
ATOM     18  C18 UNL     1       2.967   1.563  23.250  0.00  0.00    +0.000 C 
ENDBRANCH  14  16
ENDBRANCH  13  14
ENDBRANCH   5   8
BRANCH   4  19
ATOM     19  C5  UNL     1      -1.596  -0.427  19.155  0.00  0.00    +0.000 C 
ATOM     20  C6  UNL     1      -2.820  -0.229  18.636  0.00  0.00    +0.000 C 
BRANCH  20  21
ATOM     21  C7  UNL     1      -4.153  -0.665  19.224  0.00  0.00    +0.000 C 
ATOM     22 CL1  UNL     1      -3.836  -2.215  20.110  0.00  0.00    +0.000 Cl
ATOM     23 CL2  UNL     1      -5.226  -1.069  17.819  0.00  0.00    +0.000 Cl
BRANCH  21  24
ATOM     24  C8  UNL     1      -4.876   0.332  20.159  0.00  0.00    +0.000 C 
ATOM     25  F1  UNL     1      -5.267   1.459  19.515  0.00  0.00    +0.000 F 
ATOM     26  F2  UNL     1      -5.989  -0.208  20.716  0.00  0.00    +0.000 F 
ATOM     27  F3  UNL     1      -4.083   0.726  21.190  0.00  0.00    +0.000 F 
ENDBRANCH  21  24
ENDBRANCH  20  21
ENDBRANCH   4  19
TORSDOF 6
ENDMDL
MODEL 7
REMARK VINA RESULT:    -5.731     23.453     25.697
REMARK INTER + INTRA:          -9.568
REMARK INTER:                  -8.338
REMARK INTRA:                  -1.230
REMARK UNBOUND:                -1.827
REMARK  Name = teste_validacao_ia\MutanteIA_Top5.pdb
REMARK  9 active torsions:
REMARK  status: ('A' for Active; 'I' for Inactive)
REMARK    1  A    between atoms: C1_1  and  C2_2
REMARK    2  A    between atoms: C4_4  and  C5_5
REMARK    3  A    between atoms: C6_6  and  C7_7
REMARK    4  A    between atoms: C7_7  and  C8_10
REMARK    5  A    between atoms: C9_14  and  C10_15
REMARK    6  A    between atoms: C14_20  and  C15_21
REMARK    7  A    between atoms: C15_21  and  C16_23
REMARK    8  A    between atoms: C16_23  and  C17_24
REMARK    9  A    between atoms: C16_23  and  C18_25
REMARK                            x       y       z     vdW  Elec       q    Type
REMARK                         _______ _______ _______ _____ _____    ______ ____
ROOT
ATOM      1  C1  UNL     1      21.277  -9.149   4.079  0.00  0.00    +0.000 C 
ATOM      2  C2  UNL     1      19.894  -9.093   3.505  0.00  0.00    +0.000 C 
ATOM      3  C3  UNL     1      19.403  -7.912   2.968  0.00  0.00    +0.000 C 
ATOM      4  C4  UNL     1      18.104  -7.881   2.433  0.00  0.00    +0.000 C 
ATOM      5  C9  UNL     1      17.300  -9.036   2.469  0.00  0.00    +0.000 C 
ATOM      6  C19 UNL     1      17.918 -10.171   3.002  0.00  0.00    +0.000 C 
ATOM      7  N1  UNL     1      19.171 -10.228   3.512  0.00  0.00    +0.000 NA
ENDROOT
BRANCH   5   8
ATOM      8  C10 UNL     1      15.898  -9.126   1.887  0.00  0.00    +0.000 C 
ATOM      9  C11 UNL     1      15.040 -10.368   2.242  0.00  0.00    +0.000 C 
ATOM     10  C12 UNL     1      14.013 -10.528   1.117  0.00  0.00    +0.000 C 
ATOM     11  C13 UNL     1      14.228  -9.327   0.215  0.00  0.00    +0.000 C 
ATOM     12  F4  UNL     1      13.874  -9.598  -1.057  0.00  0.00    +0.000 F 
ATOM     13  C14 UNL     1      15.712  -9.012   0.351  0.00  0.00    +0.000 C 
BRANCH  13  14
ATOM     14  C15 UNL     1      16.513 -10.014  -0.485  0.00  0.00    +0.000 C 
ATOM     15  O1  UNL     1      16.594 -11.202  -0.172  0.00  0.00    +0.000 OA
BRANCH  14  16
ATOM     16  C16 UNL     1      17.232  -9.470  -1.718  0.00  0.00    +0.000 C 
ATOM     17  C17 UNL     1      16.565 -10.008  -2.977  0.00  0.00    +0.000 C 
ATOM     18  C18 UNL     1      17.230  -7.945  -1.696  0.00  0.00    +0.000 C 
ENDBRANCH  14  16
ENDBRANCH  13  14
ENDBRANCH   5   8
BRANCH   4  19
ATOM     19  C5  UNL     1      17.683  -6.627   1.794  0.00  0.00    +0.000 C 
ATOM     20  C6  UNL     1      16.644  -5.911   2.258  0.00  0.00    +0.000 C 
BRANCH  20  21
ATOM     21  C7  UNL     1      16.092  -4.612   1.691  0.00  0.00    +0.000 C 
ATOM     22 CL1  UNL     1      14.311  -4.867   1.473  0.00  0.00    +0.000 Cl
ATOM     23 CL2  UNL     1      16.808  -4.431   0.034  0.00  0.00    +0.000 Cl
BRANCH  21  24
ATOM     24  C8  UNL     1      16.338  -3.322   2.507  0.00  0.00    +0.000 C 
ATOM     25  F1  UNL     1      15.999  -2.202   1.822  0.00  0.00    +0.000 F 
ATOM     26  F2  UNL     1      15.625  -3.307   3.661  0.00  0.00    +0.000 F 
ATOM     27  F3  UNL     1      17.643  -3.185   2.859  0.00  0.00    +0.000 F 
ENDBRANCH  21  24
ENDBRANCH  20  21
ENDBRANCH   4  19
TORSDOF 6
ENDMDL
MODEL 8
REMARK VINA RESULT:    -5.686     22.384     25.061
REMARK INTER + INTRA:          -9.508
REMARK INTER:                  -8.041
REMARK INTRA:                  -1.467
REMARK UNBOUND:                -1.827
REMARK  Name = teste_validacao_ia\MutanteIA_Top5.pdb
REMARK  9 active torsions:
REMARK  status: ('A' for Active; 'I' for Inactive)
REMARK    1  A    between atoms: C1_1  and  C2_2
REMARK    2  A    between atoms: C4_4  and  C5_5
REMARK    3  A    between atoms: C6_6  and  C7_7
REMARK    4  A    between atoms: C7_7  and  C8_10
REMARK    5  A    between atoms: C9_14  and  C10_15
REMARK    6  A    between atoms: C14_20  and  C15_21
REMARK    7  A    between atoms: C15_21  and  C16_23
REMARK    8  A    between atoms: C16_23  and  C17_24
REMARK    9  A    between atoms: C16_23  and  C18_25
REMARK                            x       y       z     vdW  Elec       q    Type
REMARK                         _______ _______ _______ _____ _____    ______ ____
ROOT
ATOM      1  C1  UNL     1      13.901 -10.496   1.822  0.00  0.00    +0.000 C 
ATOM      2  C2  UNL     1      14.520  -9.333   1.107  0.00  0.00    +0.000 C 
ATOM      3  C3  UNL     1      14.260  -8.035   1.518  0.00  0.00    +0.000 C 
ATOM      4  C4  UNL     1      14.852  -6.959   0.836  0.00  0.00    +0.000 C 
ATOM      5  C9  UNL     1      15.679  -7.202  -0.277  0.00  0.00    +0.000 C 
ATOM      6  C19 UNL     1      15.893  -8.551  -0.573  0.00  0.00    +0.000 C 
ATOM      7  N1  UNL     1      15.344  -9.604   0.078  0.00  0.00    +0.000 NA
ENDROOT
BRANCH   5   8
ATOM      8  C10 UNL     1      16.399  -6.119  -1.065  0.00  0.00    +0.000 C 
ATOM      9  C11 UNL     1      17.245  -6.550  -2.290  0.00  0.00    +0.000 C 
ATOM     10  C12 UNL     1      18.298  -5.457  -2.505  0.00  0.00    +0.000 C 
ATOM     11  C13 UNL     1      17.963  -4.385  -1.483  0.00  0.00    +0.000 C 
ATOM     12  F4  UNL     1      19.060  -3.688  -1.125  0.00  0.00    +0.000 F 
ATOM     13  C14 UNL     1      17.353  -5.151  -0.316  0.00  0.00    +0.000 C 
BRANCH  13  14
ATOM     14  C15 UNL     1      18.476  -5.820   0.481  0.00  0.00    +0.000 C 
ATOM     15  O1  UNL     1      19.118  -6.767   0.028  0.00  0.00    +0.000 OA
BRANCH  14  16
ATOM     16  C16 UNL     1      18.749  -5.276   1.882  0.00  0.00    +0.000 C 
ATOM     17  C17 UNL     1      20.178  -4.755   1.958  0.00  0.00    +0.000 C 
ATOM     18  C18 UNL     1      17.741  -4.185   2.227  0.00  0.00    +0.000 C 
ENDBRANCH  14  16
ENDBRANCH  13  14
ENDBRANCH   5   8
BRANCH   4  19
ATOM     19  C5  UNL     1      14.612  -5.617   1.384  0.00  0.00    +0.000 C 
ATOM     20  C6  UNL     1      13.476  -4.944   1.135  0.00  0.00    +0.000 C 
BRANCH  20  21
ATOM     21  C7  UNL     1      13.103  -3.552   1.621  0.00  0.00    +0.000 C 
ATOM     22 CL1  UNL     1      12.529  -3.745   3.330  0.00  0.00    +0.000 Cl
ATOM     23 CL2  UNL     1      11.671  -3.031   0.637  0.00  0.00    +0.000 Cl
BRANCH  21  24
ATOM     24  C8  UNL     1      14.199  -2.463   1.559  0.00  0.00    +0.000 C 
ATOM     25  F1  UNL     1      14.991  -2.584   0.465  0.00  0.00    +0.000 F 
ATOM     26  F2  UNL     1      13.672  -1.212   1.525  0.00  0.00    +0.000 F 
ATOM     27  F3  UNL     1      15.018  -2.505   2.642  0.00  0.00    +0.000 F 
ENDBRANCH  21  24
ENDBRANCH  20  21
ENDBRANCH   4  19
TORSDOF 6
ENDMDL
MODEL 9
REMARK VINA RESULT:    -5.647      1.670      2.134
REMARK INTER + INTRA:          -9.455
REMARK INTER:                  -8.082
REMARK INTRA:                  -1.373
REMARK UNBOUND:                -1.827
REMARK  Name = teste_validacao_ia\MutanteIA_Top5.pdb
REMARK  9 active torsions:
REMARK  status: ('A' for Active; 'I' for Inactive)
REMARK    1  A    between atoms: C1_1  and  C2_2
REMARK    2  A    between atoms: C4_4  and  C5_5
REMARK    3  A    between atoms: C6_6  and  C7_7
REMARK    4  A    between atoms: C7_7  and  C8_10
REMARK    5  A    between atoms: C9_14  and  C10_15
REMARK    6  A    between atoms: C14_20  and  C15_21
REMARK    7  A    between atoms: C15_21  and  C16_23
REMARK    8  A    between atoms: C16_23  and  C17_24
REMARK    9  A    between atoms: C16_23  and  C18_25
REMARK                            x       y       z     vdW  Elec       q    Type
REMARK                         _______ _______ _______ _____ _____    ______ ____
ROOT
ATOM      1  C1  UNL     1      -1.512   3.018  16.186  0.00  0.00    +0.000 C 
ATOM      2  C2  UNL     1      -0.520   1.923  16.433  0.00  0.00    +0.000 C 
ATOM      3  C3  UNL     1       0.210   1.889  17.611  0.00  0.00    +0.000 C 
ATOM      4  C4  UNL     1       1.134   0.852  17.826  0.00  0.00    +0.000 C 
ATOM      5  C9  UNL     1       1.334  -0.127  16.835  0.00  0.00    +0.000 C 
ATOM      6  C19 UNL     1       0.516  -0.006  15.708  0.00  0.00    +0.000 C 
ATOM      7  N1  UNL     1      -0.389   0.976  15.486  0.00  0.00    +0.000 NA
ENDROOT
BRANCH   5   8
ATOM      8  C10 UNL     1       2.279  -1.311  16.975  0.00  0.00    +0.000 C 
ATOM      9  C11 UNL     1       2.584  -2.153  15.709  0.00  0.00    +0.000 C 
ATOM     10  C12 UNL     1       3.003  -3.544  16.197  0.00  0.00    +0.000 C 
ATOM     11  C13 UNL     1       3.036  -3.435  17.710  0.00  0.00    +0.000 C 
ATOM     12  F4  UNL     1       2.794  -4.625  18.294  0.00  0.00    +0.000 F 
ATOM     13  C14 UNL     1       1.971  -2.397  18.039  0.00  0.00    +0.000 C 
BRANCH  13  14
ATOM     14  C15 UNL     1       0.590  -3.050  17.933  0.00  0.00    +0.000 C 
ATOM     15  O1  UNL     1       0.181  -3.533  16.878  0.00  0.00    +0.000 OA
BRANCH  14  16
ATOM     16  C16 UNL     1      -0.273  -3.053  19.193  0.00  0.00    +0.000 C 
ATOM     17  C17 UNL     1       0.528  -2.498  20.363  0.00  0.00    +0.000 C 
ATOM     18  C18 UNL     1      -1.546  -2.245  18.959  0.00  0.00    +0.000 C 
ENDBRANCH  14  16
ENDBRANCH  13  14
ENDBRANCH   5   8
BRANCH   4  19
ATOM     19  C5  UNL     1       1.801   0.822  19.134  0.00  0.00    +0.000 C 
ATOM     20  C6  UNL     1       1.836   1.901  19.936  0.00  0.00    +0.000 C 
BRANCH  20  21
ATOM     21  C7  UNL     1       2.499   2.016  21.299  0.00  0.00    +0.000 C 
ATOM     22 CL1  UNL     1       1.765   0.720  22.334  0.00  0.00    +0.000 Cl
ATOM     23 CL2  UNL     1       1.975   3.607  21.992  0.00  0.00    +0.000 Cl
BRANCH  21  24
ATOM     24  C8  UNL     1       4.041   1.910  21.348  0.00  0.00    +0.000 C 
ATOM     25  F1  UNL     1       4.598   1.858  20.114  0.00  0.00    +0.000 F 
ATOM     26  F2  UNL     1       4.603   2.968  21.987  0.00  0.00    +0.000 F 
ATOM     27  F3  UNL     1       4.453   0.798  22.012  0.00  0.00    +0.000 F 
ENDBRANCH  21  24
ENDBRANCH  20  21
ENDBRANCH   4  19
TORSDOF 6
ENDMDL
