MODEL 1
REMARK VINA RESULT:    -7.093      0.000      0.000
REMARK INTER + INTRA:         -11.927
REMARK INTER:                 -10.410
REMARK INTRA:                  -1.517
REMARK UNBOUND:                -1.517
REMARK  Name = teste_validacao_ia\MutanteIA_Top3.pdb
REMARK  11 active torsions:
REMARK  status: ('A' for Active; 'I' for Inactive)
REMARK    1  A    between atoms: C1_1  and  C2_2
REMARK    2  A    between atoms: C4_4  and  C5_5
REMARK    3  A    between atoms: C6_6  and  C7_7
REMARK    4  A    between atoms: C7_7  and  C8_10
REMARK    5  A    between atoms: C8_10  and  C9_13
REMARK    6  A    between atoms: C9_13  and  C10_16
REMARK    7  A    between atoms: C11_20  and  C12_21
REMARK    8  A    between atoms: C16_26  and  C17_27
REMARK    9  A    between atoms: C17_27  and  C18_29
REMARK   10  A    between atoms: C18_29  and  C19_30
REMARK   11  A    between atoms: C18_29  and  C20_31
REMARK                            x       y       z     vdW  Elec       q    Type
REMARK                         _______ _______ _______ _____ _____    ______ ____
ROOT
ATOM      1  C1  UNL     1      17.993  -8.394  -4.443  0.00  0.00    +0.000 C 
ATOM      2  C2  UNL     1      17.846  -8.442  -2.954  0.00  0.00    +0.000 C 
ATOM      3  C3  UNL     1      18.060  -7.302  -2.193  0.00  0.00    +0.000 C 
ATOM      4  C4  UNL     1      17.912  -7.373  -0.803  0.00  0.00    +0.000 C 
ATOM      5  C11 UNL     1      17.537  -8.586  -0.196  0.00  0.00    +0.000 C 
ATOM      6  C21 UNL     1      17.359  -9.669  -1.056  0.00  0.00    +0.000 C 
ATOM      7  N1  UNL     1      17.512  -9.627  -2.398  0.00  0.00    +0.000 NA
ENDROOT
BRANCH   5   8
ATOM      8  C12 UNL     1      17.370  -8.702   1.312  0.00  0.00    +0.000 C 
ATOM      9  C13 UNL     1      16.265  -9.668   1.802  0.00  0.00    +0.000 C 
ATOM     10  C14 UNL     1      16.972 -10.869   2.431  0.00  0.00    +0.000 C 
ATOM     11  C15 UNL     1      18.434 -10.715   2.060  0.00  0.00    +0.000 C 
ATOM     12  F6  UNL     1      19.233 -11.295   2.982  0.00  0.00    +0.000 F 
ATOM     13  C16 UNL     1      18.665  -9.218   1.968  0.00  0.00    +0.000 C 
BRANCH  13  14
ATOM     14  C17 UNL     1      18.889  -8.618   3.352  0.00  0.00    +0.000 C 
ATOM     15  O1  UNL     1      18.034  -8.691   4.237  0.00  0.00    +0.000 OA
BRANCH  14  16
ATOM     16  C18 UNL     1      20.203  -7.871   3.574  0.00  0.00    +0.000 C 
ATOM     17  C19 UNL     1      21.276  -8.868   3.998  0.00  0.00    +0.000 C 
ATOM     18  C20 UNL     1      20.610  -7.114   2.316  0.00  0.00    +0.000 C 
ENDBRANCH  14  16
ENDBRANCH  13  14
ENDBRANCH   5   8
BRANCH   4  19
ATOM     19  C5  UNL     1      18.178  -6.157  -0.027  0.00  0.00    +0.000 C 
ATOM     20  C6  UNL     1      17.323  -5.165   0.283  0.00  0.00    +0.000 C 
BRANCH  20  21
ATOM     21  C7  UNL     1      15.830  -4.931   0.023  0.00  0.00    +0.000 C 
ATOM     22 CL1  UNL     1      15.772  -4.375  -1.732  0.00  0.00    +0.000 Cl
ATOM     23 CL2  UNL     1      14.886  -6.480   0.025  0.00  0.00    +0.000 Cl
BRANCH  21  24
ATOM     24  C8  UNL     1      15.145  -3.860   0.978  0.00  0.00    +0.000 C 
ATOM     25 CL3  UNL     1      15.581  -2.163   0.413  0.00  0.00    +0.000 Cl
ATOM     26 CL4  UNL     1      13.326  -3.935   0.821  0.00  0.00    +0.000 Cl
BRANCH  24  27
ATOM     27  C9  UNL     1      15.597  -4.044   2.443  0.00  0.00    +0.000 C 
ATOM     28  F1  UNL     1      15.205  -2.944   3.163  0.00  0.00    +0.000 F 
ATOM     29  F2  UNL     1      16.961  -4.046   2.521  0.00  0.00    +0.000 F 
BRANCH  27  30
ATOM     30  C10 UNL     1      15.074  -5.295   3.151  0.00  0.00    +0.000 C 
ATOM     31  F3  UNL     1      13.859  -5.654   2.660  0.00  0.00    +0.000 F 
ATOM     32  F4  UNL     1      15.882  -6.366   2.992  0.00  0.00    +0.000 F 
ATOM     33  F5  UNL     1      14.907  -5.117   4.480  0.00  0.00    +0.000 F 
ENDBRANCH  27  30
ENDBRANCH  24  27
ENDBRANCH  21  24
ENDBRANCH  20  21
ENDBRANCH   4  19
TORSDOF 8
ENDMDL
MODEL 2
REMARK VINA RESULT:    -7.077     22.403     25.825
REMARK INTER + INTRA:         -11.904
REMARK INTER:                 -10.473
REMARK INTRA:                  -1.432
REMARK UNBOUND:                -1.517
REMARK  Name = teste_validacao_ia\MutanteIA_Top3.pdb
REMARK  11 active torsions:
REMARK  status: ('A' for Active; 'I' for Inactive)
REMARK    1  A    between atoms: C1_1  and  C2_2
REMARK    2  A    between atoms: C4_4  and  C5_5
REMARK    3  A    between atoms: C6_6  and  C7_7
REMARK    4  A    between atoms: C7_7  and  C8_10
REMARK    5  A    between atoms: C8_10  and  C9_13
REMARK    6  A    between atoms: C9_13  and  C10_16
REMARK    7  A    between atoms: C11_20  and  C12_21
REMARK    8  A    between atoms: C16_26  and  C17_27
REMARK    9  A    between atoms: C17_27  and  C18_29
REMARK   10  A    between atoms: C18_29  and  C19_30
REMARK   11  A    between atoms: C18_29  and  C20_31
REMARK                            x       y       z     vdW  Elec       q    Type
REMARK                         _______ _______ _______ _____ _____    ______ ____
ROOT
ATOM      1  C1  UNL     1      -4.966   0.012  20.620  0.00  0.00    +0.000 C 
ATOM      2  C2  UNL     1      -3.530   0.308  20.313  0.00  0.00    +0.000 C 
ATOM      3  C3  UNL     1      -2.586  -0.709  20.340  0.00  0.00    +0.000 C 
ATOM      4  C4  UNL     1      -1.252  -0.408  20.044  0.00  0.00    +0.000 C 
ATOM      5  C11 UNL     1      -0.885   0.910  19.713  0.00  0.00    +0.000 C 
ATOM      6  C21 UNL     1      -1.912   1.852  19.728  0.00  0.00    +0.000 C 
ATOM      7  N1  UNL     1      -3.204   1.586  20.026  0.00  0.00    +0.000 NA
ENDROOT
BRANCH   5   8
ATOM      8  C12 UNL     1       0.556   1.275  19.390  0.00  0.00    +0.000 C 
ATOM      9  C13 UNL     1       0.763   2.230  18.189  0.00  0.00    +0.000 C 
ATOM     10  C14 UNL     1       1.225   3.570  18.762  0.00  0.00    +0.000 C 
ATOM     11  C15 UNL     1       1.017   3.461  20.261  0.00  0.00    +0.000 C 
ATOM     12  F6  UNL     1       1.886   4.250  20.930  0.00  0.00    +0.000 F 
ATOM     13  C16 UNL     1       1.219   1.992  20.582  0.00  0.00    +0.000 C 
BRANCH  13  14
ATOM     14  C17 UNL     1       2.704   1.661  20.701  0.00  0.00    +0.000 C 
ATOM     15  O1  UNL     1       3.495   1.894  19.784  0.00  0.00    +0.000 OA
BRANCH  14  16
ATOM     16  C18 UNL     1       3.156   0.976  21.989  0.00  0.00    +0.000 C 
ATOM     17  C19 UNL     1       3.386   2.035  23.061  0.00  0.00    +0.000 C 
ATOM     18  C20 UNL     1       2.130  -0.058  22.437  0.00  0.00    +0.000 C 
ENDBRANCH  14  16
ENDBRANCH  13  14
ENDBRANCH   5   8
BRANCH   4  19
ATOM     19  C5  UNL     1      -0.276  -1.500  20.114  0.00  0.00    +0.000 C 
ATOM     20  C6  UNL     1       0.119  -2.326  19.128  0.00  0.00    +0.000 C 
BRANCH  20  21
ATOM     21  C7  UNL     1      -0.217  -2.434  17.636  0.00  0.00    +0.000 C 
ATOM     22 CL1  UNL     1      -1.440  -3.808  17.558  0.00  0.00    +0.000 Cl
ATOM     23 CL2  UNL     1      -1.139  -0.990  17.039  0.00  0.00    +0.000 Cl
BRANCH  21  24
ATOM     24  C8  UNL     1       1.027  -2.729  16.691  0.00  0.00    +0.000 C 
ATOM     25 CL3  UNL     1       1.869  -4.270  17.244  0.00  0.00    +0.000 Cl
ATOM     26 CL4  UNL     1       0.464  -3.106  14.994  0.00  0.00    +0.000 Cl
BRANCH  24  27
ATOM     27  C9  UNL     1       2.035  -1.559  16.708  0.00  0.00    +0.000 C 
ATOM     28  F1  UNL     1       2.187  -1.131  18.002  0.00  0.00    +0.000 F 
ATOM     29  F2  UNL     1       1.523  -0.483  16.041  0.00  0.00    +0.000 F 
BRANCH  27  30
ATOM     30  C10 UNL     1       3.421  -1.863  16.136  0.00  0.00    +0.000 C 
ATOM     31  F3  UNL     1       4.031  -2.846  16.849  0.00  0.00    +0.000 F 
ATOM     32  F4  UNL     1       3.379  -2.292  14.855  0.00  0.00    +0.000 F 
ATOM     33  F5  UNL     1       4.252  -0.798  16.172  0.00  0.00    +0.000 F 
ENDBRANCH  27  30
ENDBRANCH  24  27
ENDBRANCH  21  24
ENDBRANCH  20  21
ENDBRANCH   4  19
TORSDOF 8
ENDMDL
MODEL 3
REMARK VINA RESULT:    -6.826     22.535     25.670
REMARK INTER + INTRA:         -11.536
REMARK INTER:                  -9.790
REMARK INTRA:                  -1.746
REMARK UNBOUND:                -1.517
REMARK  Name = teste_validacao_ia\MutanteIA_Top3.pdb
REMARK  11 active torsions:
REMARK  status: ('A' for Active; 'I' for Inactive)
REMARK    1  A    between atoms: C1_1  and  C2_2
REMARK    2  A    between atoms: C4_4  and  C5_5
REMARK    3  A    between atoms: C6_6  and  C7_7
REMARK    4  A    between atoms: C7_7  and  C8_10
REMARK    5  A    between atoms: C8_10  and  C9_13
REMARK    6  A    between atoms: C9_13  and  C10_16
REMARK    7  A    between atoms: C11_20  and  C12_21
REMARK    8  A    between atoms: C16_26  and  C17_27
REMARK    9  A    between atoms: C17_27  and  C18_29
REMARK   10  A    between atoms: C18_29  and  C19_30
REMARK   11  A    between atoms: C18_29  and  C20_31
REMARK                            x       y       z     vdW  Elec       q    Type
REMARK                         _______ _______ _______ _____ _____    ______ ____
ROOT
ATOM      1  C1  UNL     1      -4.950  -0.192  20.261  0.00  0.00    +0.000 C 
ATOM      2  C2  UNL     1      -3.685  -0.815  19.754  0.00  0.00    +0.000 C 
ATOM      3  C3  UNL     1      -2.837  -0.097  18.922  0.00  0.00    +0.000 C 
ATOM      4  C4  UNL     1      -1.659  -0.701  18.467  0.00  0.00    +0.000 C 
ATOM      5  C11 UNL     1      -1.343  -2.014  18.862  0.00  0.00    +0.000 C 
ATOM      6  C21 UNL     1      -2.272  -2.643  19.689  0.00  0.00    +0.000 C 
ATOM      7  N1  UNL     1      -3.423  -2.085  20.129  0.00  0.00    +0.000 NA
ENDROOT
BRANCH   5   8
ATOM      8  C12 UNL     1      -0.074  -2.704  18.383  0.00  0.00    +0.000 C 
ATOM      9  C13 UNL     1       0.384  -3.933  19.205  0.00  0.00    +0.000 C 
ATOM     10  C14 UNL     1       0.149  -5.164  18.331  0.00  0.00    +0.000 C 
ATOM     11  C15 UNL     1      -0.675  -4.673  17.156  0.00  0.00    +0.000 C 
ATOM     12  F6  UNL     1      -0.458  -5.431  16.059  0.00  0.00    +0.000 F 
ATOM     13  C16 UNL     1      -0.247  -3.232  16.947  0.00  0.00    +0.000 C 
BRANCH  13  14
ATOM     14  C17 UNL     1       1.049  -3.162  16.146  0.00  0.00    +0.000 C 
ATOM     15  O1  UNL     1       2.150  -3.313  16.680  0.00  0.00    +0.000 OA
BRANCH  14  16
ATOM     16  C18 UNL     1       0.923  -2.842  14.658  0.00  0.00    +0.000 C 
ATOM     17  C19 UNL     1      -0.246  -1.886  14.452  0.00  0.00    +0.000 C 
ATOM     18  C20 UNL     1       2.224  -2.255  14.122  0.00  0.00    +0.000 C 
ENDBRANCH  14  16
ENDBRANCH  13  14
ENDBRANCH   5   8
BRANCH   4  19
ATOM     19  C5  UNL     1      -0.803   0.074  17.564  0.00  0.00    +0.000 C 
ATOM     20  C6  UNL     1       0.068   1.051  17.878  0.00  0.00    +0.000 C 
BRANCH  20  21
ATOM     21  C7  UNL     1       0.528   1.676  19.200  0.00  0.00    +0.000 C 
ATOM     22 CL1  UNL     1       1.563   3.106  18.673  0.00  0.00    +0.000 Cl
ATOM     23 CL2  UNL     1      -0.845   2.439  20.109  0.00  0.00    +0.000 Cl
BRANCH  21  24
ATOM     24  C8  UNL     1       1.351   0.702  20.150  0.00  0.00    +0.000 C 
ATOM     25 CL3  UNL     1       0.206  -0.105  21.345  0.00  0.00    +0.000 Cl
ATOM     26 CL4  UNL     1       2.052  -0.685  19.189  0.00  0.00    +0.000 Cl
BRANCH  24  27
ATOM     27  C9  UNL     1       2.446   1.467  20.925  0.00  0.00    +0.000 C 
ATOM     28  F1  UNL     1       1.927   2.663  21.351  0.00  0.00    +0.000 F 
ATOM     29  F2  UNL     1       3.469   1.809  20.087  0.00  0.00    +0.000 F 
BRANCH  27  30
ATOM     30  C10 UNL     1       3.038   0.742  22.134  0.00  0.00    +0.000 C 
ATOM     31  F3  UNL     1       2.355   1.056  23.266  0.00  0.00    +0.000 F 
ATOM     32  F4  UNL     1       2.986  -0.604  22.018  0.00  0.00    +0.000 F 
ATOM     33  F5  UNL     1       4.328   1.071  22.368  0.00  0.00    +0.000 F 
ENDBRANCH  27  30
ENDBRANCH  24  27
ENDBRANCH  21  24
ENDBRANCH  20  21
ENDBRANCH   4  19
TORSDOF 8
ENDMDL
MODEL 4
REMARK VINA RESULT:    -6.770     21.237     24.404
REMARK INTER + INTRA:         -11.453
REMARK INTER:                  -9.853
REMARK INTRA:                  -1.601
REMARK UNBOUND:                -1.517
REMARK  Name = teste_validacao_ia\MutanteIA_Top3.pdb
REMARK  11 active torsions:
REMARK  status: ('A' for Active; 'I' for Inactive)
REMARK    1  A    between atoms: C1_1  and  C2_2
REMARK    2  A    between atoms: C4_4  and  C5_5
REMARK    3  A    between atoms: C6_6  and  C7_7
REMARK    4  A    between atoms: C7_7  and  C8_10
REMARK    5  A    between atoms: C8_10  and  C9_13
REMARK    6  A    between atoms: C9_13  and  C10_16
REMARK    7  A    between atoms: C11_20  and  C12_21
REMARK    8  A    between atoms: C16_26  and  C17_27
REMARK    9  A    between atoms: C17_27  and  C18_29
REMARK   10  A    between atoms: C18_29  and  C19_30
REMARK   11  A    between atoms: C18_29  and  C20_31
REMARK                            x       y       z     vdW  Elec       q    Type
REMARK                         _______ _______ _______ _____ _____    ______ ____
ROOT
ATOM      1  C1  UNL     1       0.745  -7.752  18.371  0.00  0.00    +0.000 C 
ATOM      2  C2  UNL     1       0.916  -6.380  17.795  0.00  0.00    +0.000 C 
ATOM      3  C3  UNL     1       0.108  -5.337  18.224  0.00  0.00    +0.000 C 
ATOM      4  C4  UNL     1       0.291  -4.063  17.673  0.00  0.00    +0.000 C 
ATOM      5  C11 UNL     1       1.292  -3.851  16.708  0.00  0.00    +0.000 C 
ATOM      6  C21 UNL     1       2.037  -4.972  16.344  0.00  0.00    +0.000 C 
ATOM      7  N1  UNL     1       1.867  -6.214  16.851  0.00  0.00    +0.000 NA
ENDROOT
BRANCH   5   8
ATOM      8  C12 UNL     1       1.517  -2.481  16.085  0.00  0.00    +0.000 C 
ATOM      9  C13 UNL     1       2.969  -2.159  15.655  0.00  0.00    +0.000 C 
ATOM     10  C14 UNL     1       2.987  -2.150  14.126  0.00  0.00    +0.000 C 
ATOM     11  C15 UNL     1       1.647  -2.722  13.704  0.00  0.00    +0.000 C 
ATOM     12  F6  UNL     1       1.272  -2.243  12.497  0.00  0.00    +0.000 F 
ATOM     13  C16 UNL     1       0.680  -2.319  14.802  0.00  0.00    +0.000 C 
BRANCH  13  14
ATOM     14  C17 UNL     1       0.200  -0.885  14.602  0.00  0.00    +0.000 C 
ATOM     15  O1  UNL     1       0.109  -0.382  13.481  0.00  0.00    +0.000 OA
BRANCH  14  16
ATOM     16  C18 UNL     1      -0.111  -0.082  15.863  0.00  0.00    +0.000 C 
ATOM     17  C19 UNL     1       0.426   1.335  15.696  0.00  0.00    +0.000 C 
ATOM     18  C20 UNL     1      -1.609  -0.081  16.145  0.00  0.00    +0.000 C 
ENDBRANCH  14  16
ENDBRANCH  13  14
ENDBRANCH   5   8
BRANCH   4  19
ATOM     19  C5  UNL     1      -0.603  -2.992  18.126  0.00  0.00    +0.000 C 
ATOM     20  C6  UNL     1      -0.429  -2.144  19.156  0.00  0.00    +0.000 C 
BRANCH  20  21
ATOM     21  C7  UNL     1       0.699  -1.925  20.172  0.00  0.00    +0.000 C 
ATOM     22 CL1  UNL     1       0.108  -2.801  21.681  0.00  0.00    +0.000 Cl
ATOM     23 CL2  UNL     1       2.213  -2.814  19.712  0.00  0.00    +0.000 Cl
BRANCH  21  24
ATOM     24  C8  UNL     1       1.024  -0.402  20.493  0.00  0.00    +0.000 C 
ATOM     25 CL3  UNL     1       1.949   0.340  19.085  0.00  0.00    +0.000 Cl
ATOM     26 CL4  UNL     1      -0.517   0.574  20.585  0.00  0.00    +0.000 Cl
BRANCH  24  27
ATOM     27  C9  UNL     1       1.861  -0.267  21.784  0.00  0.00    +0.000 C 
ATOM     28  F1  UNL     1       2.721  -1.333  21.862  0.00  0.00    +0.000 F 
ATOM     29  F2  UNL     1       1.058  -0.385  22.883  0.00  0.00    +0.000 F 
BRANCH  27  30
ATOM     30  C10 UNL     1       2.676   1.019  21.920  0.00  0.00    +0.000 C 
ATOM     31  F3  UNL     1       2.956   1.276  23.225  0.00  0.00    +0.000 F 
ATOM     32  F4  UNL     1       3.865   0.959  21.279  0.00  0.00    +0.000 F 
ATOM     33  F5  UNL     1       2.027   2.108  21.452  0.00  0.00    +0.000 F 
ENDBRANCH  27  30
ENDBRANCH  24  27
ENDBRANCH  21  24
ENDBRANCH  20  21
ENDBRANCH   4  19
TORSDOF 8
ENDMDL
MODEL 5
REMARK VINA RESULT:    -6.716     23.012     26.050
REMARK INTER + INTRA:         -11.373
REMARK INTER:                 -10.209
REMARK INTRA:                  -1.164
REMARK UNBOUND:                -1.517
REMARK  Name = teste_validacao_ia\MutanteIA_Top3.pdb
REMARK  11 active torsions:
REMARK  status: ('A' for Active; 'I' for Inactive)
REMARK    1  A    between atoms: C1_1  and  C2_2
REMARK    2  A    between atoms: C4_4  and  C5_5
REMARK    3  A    between atoms: C6_6  and  C7_7
REMARK    4  A    between atoms: C7_7  and  C8_10
REMARK    5  A    between atoms: C8_10  and  C9_13
REMARK    6  A    between atoms: C9_13  and  C10_16
REMARK    7  A    between atoms: C11_20  and  C12_21
REMARK    8  A    between atoms: C16_26  and  C17_27
REMARK    9  A    between atoms: C17_27  and  C18_29
REMARK   10  A    between atoms: C18_29  and  C19_30
REMARK   11  A    between atoms: C18_29  and  C20_31
REMARK                            x       y       z     vdW  Elec       q    Type
REMARK                         _______ _______ _______ _____ _____    ______ ____
ROOT
ATOM      1  C1  UNL     1      -4.522   0.630  20.110  0.00  0.00    +0.000 C 
ATOM      2  C2  UNL     1      -3.053   0.884  19.966  0.00  0.00    +0.000 C 
ATOM      3  C3  UNL     1      -2.143  -0.142  20.176  0.00  0.00    +0.000 C 
ATOM      4  C4  UNL     1      -0.776   0.121  20.030  0.00  0.00    +0.000 C 
ATOM      5  C11 UNL     1      -0.342   1.407  19.663  0.00  0.00    +0.000 C 
ATOM      6  C21 UNL     1      -1.342   2.363  19.488  0.00  0.00    +0.000 C 
ATOM      7  N1  UNL     1      -2.666   2.136  19.639  0.00  0.00    +0.000 NA
ENDROOT
BRANCH   5   8
ATOM      8  C12 UNL     1       1.137   1.730  19.499  0.00  0.00    +0.000 C 
ATOM      9  C13 UNL     1       1.491   2.750  18.390  0.00  0.00    +0.000 C 
ATOM     10  C14 UNL     1       1.946   4.030  19.093  0.00  0.00    +0.000 C 
ATOM     11  C15 UNL     1       1.594   3.833  20.555  0.00  0.00    +0.000 C 
ATOM     12  F6  UNL     1       2.424   4.539  21.353  0.00  0.00    +0.000 F 
ATOM     13  C16 UNL     1       1.710   2.339  20.793  0.00  0.00    +0.000 C 
BRANCH  13  14
ATOM     14  C17 UNL     1       3.164   1.937  21.024  0.00  0.00    +0.000 C 
ATOM     15  O1  UNL     1       4.033   2.130  20.172  0.00  0.00    +0.000 OA
BRANCH  14  16
ATOM     16  C18 UNL     1       3.482   1.234  22.341  0.00  0.00    +0.000 C 
ATOM     17  C19 UNL     1       3.294   2.218  23.490  0.00  0.00    +0.000 C 
ATOM     18  C20 UNL     1       2.607  -0.002  22.517  0.00  0.00    +0.000 C 
ENDBRANCH  14  16
ENDBRANCH  13  14
ENDBRANCH   5   8
BRANCH   4  19
ATOM     19  C5  UNL     1       0.159  -0.978  20.292  0.00  0.00    +0.000 C 
ATOM     20  C6  UNL     1       0.595  -1.920  19.436  0.00  0.00    +0.000 C 
BRANCH  20  21
ATOM     21  C7  UNL     1       0.359  -2.191  17.945  0.00  0.00    +0.000 C 
ATOM     22 CL1  UNL     1      -1.451  -2.511  17.838  0.00  0.00    +0.000 Cl
ATOM     23 CL2  UNL     1       0.603  -0.703  16.936  0.00  0.00    +0.000 Cl
BRANCH  21  24
ATOM     24  C8  UNL     1       1.186  -3.410  17.347  0.00  0.00    +0.000 C 
ATOM     25 CL3  UNL     1       0.277  -4.128  15.916  0.00  0.00    +0.000 Cl
ATOM     26 CL4  UNL     1       2.762  -2.825  16.633  0.00  0.00    +0.000 Cl
BRANCH  24  27
ATOM     27  C9  UNL     1       1.416  -4.507  18.410  0.00  0.00    +0.000 C 
ATOM     28  F1  UNL     1       0.352  -4.509  19.275  0.00  0.00    +0.000 F 
ATOM     29  F2  UNL     1       2.496  -4.194  19.186  0.00  0.00    +0.000 F 
BRANCH  27  30
ATOM     30  C10 UNL     1       1.604  -5.927  17.875  0.00  0.00    +0.000 C 
ATOM     31  F3  UNL     1       0.416  -6.586  17.831  0.00  0.00    +0.000 F 
ATOM     32  F4  UNL     1       2.103  -5.954  16.619  0.00  0.00    +0.000 F 
ATOM     33  F5  UNL     1       2.424  -6.676  18.645  0.00  0.00    +0.000 F 
ENDBRANCH  27  30
ENDBRANCH  24  27
ENDBRANCH  21  24
ENDBRANCH  20  21
ENDBRANCH   4  19
TORSDOF 8
ENDMDL
MODEL 6
REMARK VINA RESULT:    -6.701      1.625      2.441
REMARK INTER + INTRA:         -11.352
REMARK INTER:                 -10.303
REMARK INTRA:                  -1.049
REMARK UNBOUND:                -1.517
REMARK  Name = teste_validacao_ia\MutanteIA_Top3.pdb
REMARK  11 active torsions:
REMARK  status: ('A' for Active; 'I' for Inactive)
REMARK    1  A    between atoms: C1_1  and  C2_2
REMARK    2  A    between atoms: C4_4  and  C5_5
REMARK    3  A    between atoms: C6_6  and  C7_7
REMARK    4  A    between atoms: C7_7  and  C8_10
REMARK    5  A    between atoms: C8_10  and  C9_13
REMARK    6  A    between atoms: C9_13  and  C10_16
REMARK    7  A    between atoms: C11_20  and  C12_21
REMARK    8  A    between atoms: C16_26  and  C17_27
REMARK    9  A    between atoms: C17_27  and  C18_29
REMARK   10  A    between atoms: C18_29  and  C19_30
REMARK   11  A    between atoms: C18_29  and  C20_31
REMARK                            x       y       z     vdW  Elec       q    Type
REMARK                         _______ _______ _______ _____ _____    ______ ____
ROOT
ATOM      1  C1  UNL     1      19.103  -4.495  -3.141  0.00  0.00    +0.000 C 
ATOM      2  C2  UNL     1      18.658  -5.374  -2.013  0.00  0.00    +0.000 C 
ATOM      3  C3  UNL     1      18.596  -4.874  -0.720  0.00  0.00    +0.000 C 
ATOM      4  C4  UNL     1      18.173  -5.715   0.316  0.00  0.00    +0.000 C 
ATOM      5  C11 UNL     1      17.805  -7.044   0.037  0.00  0.00    +0.000 C 
ATOM      6  C21 UNL     1      17.916  -7.442  -1.294  0.00  0.00    +0.000 C 
ATOM      7  N1  UNL     1      18.337  -6.652  -2.307  0.00  0.00    +0.000 NA
ENDROOT
BRANCH   5   8
ATOM      8  C12 UNL     1      17.344  -7.988   1.138  0.00  0.00    +0.000 C 
ATOM      9  C13 UNL     1      16.008  -8.728   0.885  0.00  0.00    +0.000 C 
ATOM     10  C14 UNL     1      16.352 -10.198   0.649  0.00  0.00    +0.000 C 
ATOM     11  C15 UNL     1      17.861 -10.240   0.498  0.00  0.00    +0.000 C 
ATOM     12  F6  UNL     1      18.354 -11.438   0.880  0.00  0.00    +0.000 F 
ATOM     13  C16 UNL     1      18.377  -9.108   1.366  0.00  0.00    +0.000 C 
BRANCH  13  14
ATOM     14  C17 UNL     1      18.450  -9.536   2.829  0.00  0.00    +0.000 C 
ATOM     15  O1  UNL     1      17.451  -9.543   3.552  0.00  0.00    +0.000 OA
BRANCH  14  16
ATOM     16  C18 UNL     1      19.829  -9.903   3.372  0.00  0.00    +0.000 C 
ATOM     17  C19 UNL     1      20.182  -8.959   4.515  0.00  0.00    +0.000 C 
ATOM     18  C20 UNL     1      19.860 -11.360   3.822  0.00  0.00    +0.000 C 
ENDBRANCH  14  16
ENDBRANCH  13  14
ENDBRANCH   5   8
BRANCH   4  19
ATOM     19  C5  UNL     1      18.152  -5.163   1.674  0.00  0.00    +0.000 C 
ATOM     20  C6  UNL     1      17.317  -4.239   2.183  0.00  0.00    +0.000 C 
BRANCH  20  21
ATOM     21  C7  UNL     1      16.111  -3.475   1.622  0.00  0.00    +0.000 C 
ATOM     22 CL1  UNL     1      16.184  -1.847   2.480  0.00  0.00    +0.000 Cl
ATOM     23 CL2  UNL     1      16.324  -3.058  -0.131  0.00  0.00    +0.000 Cl
BRANCH  21  24
ATOM     24  C8  UNL     1      14.705  -4.177   1.861  0.00  0.00    +0.000 C 
ATOM     25 CL3  UNL     1      13.355  -3.061   1.295  0.00  0.00    +0.000 Cl
ATOM     26 CL4  UNL     1      14.542  -5.657   0.800  0.00  0.00    +0.000 Cl
BRANCH  24  27
ATOM     27  C9  UNL     1      14.495  -4.522   3.351  0.00  0.00    +0.000 C 
ATOM     28  F1  UNL     1      13.303  -3.981   3.762  0.00  0.00    +0.000 F 
ATOM     29  F2  UNL     1      15.442  -3.903   4.118  0.00  0.00    +0.000 F 
BRANCH  27  30
ATOM     30  C10 UNL     1      14.493  -6.011   3.700  0.00  0.00    +0.000 C 
ATOM     31  F3  UNL     1      14.406  -6.191   5.044  0.00  0.00    +0.000 F 
ATOM     32  F4  UNL     1      13.448  -6.676   3.158  0.00  0.00    +0.000 F 
ATOM     33  F5  UNL     1      15.617  -6.647   3.304  0.00  0.00    +0.000 F 
ENDBRANCH  27  30
ENDBRANCH  24  27
ENDBRANCH  21  24
ENDBRANCH  20  21
ENDBRANCH   4  19
TORSDOF 8
ENDMDL
MODEL 7
REMARK VINA RESULT:    -6.671     21.713     25.097
REMARK INTER + INTRA:         -11.309
REMARK INTER:                  -9.983
REMARK INTRA:                  -1.325
REMARK UNBOUND:                -1.517
REMARK  Name = teste_validacao_ia\MutanteIA_Top3.pdb
REMARK  11 active torsions:
REMARK  status: ('A' for Active; 'I' for Inactive)
REMARK    1  A    between atoms: C1_1  and  C2_2
REMARK    2  A    between atoms: C4_4  and  C5_5
REMARK    3  A    between atoms: C6_6  and  C7_7
REMARK    4  A    between atoms: C7_7  and  C8_10
REMARK    5  A    between atoms: C8_10  and  C9_13
REMARK    6  A    between atoms: C9_13  and  C10_16
REMARK    7  A    between atoms: C11_20  and  C12_21
REMARK    8  A    between atoms: C16_26  and  C17_27
REMARK    9  A    between atoms: C17_27  and  C18_29
REMARK   10  A    between atoms: C18_29  and  C19_30
REMARK   11  A    between atoms: C18_29  and  C20_31
REMARK                            x       y       z     vdW  Elec       q    Type
REMARK                         _______ _______ _______ _____ _____    ______ ____
ROOT
ATOM      1  C1  UNL     1      -3.165  -2.019  20.655  0.00  0.00    +0.000 C 
ATOM      2  C2  UNL     1      -1.836  -1.375  20.404  0.00  0.00    +0.000 C 
ATOM      3  C3  UNL     1      -0.685  -2.147  20.344  0.00  0.00    +0.000 C 
ATOM      4  C4  UNL     1       0.543  -1.521  20.103  0.00  0.00    +0.000 C 
ATOM      5  C11 UNL     1       0.598  -0.128  19.913  0.00  0.00    +0.000 C 
ATOM      6  C21 UNL     1      -0.617   0.549  20.005  0.00  0.00    +0.000 C 
ATOM      7  N1  UNL     1      -1.813  -0.033  20.253  0.00  0.00    +0.000 NA
ENDROOT
BRANCH   5   8
ATOM      8  C12 UNL     1       1.916   0.587  19.653  0.00  0.00    +0.000 C 
ATOM      9  C13 UNL     1       2.125   1.126  18.217  0.00  0.00    +0.000 C 
ATOM     10  C14 UNL     1       2.050   2.651  18.300  0.00  0.00    +0.000 C 
ATOM     11  C15 UNL     1       1.537   2.954  19.695  0.00  0.00    +0.000 C 
ATOM     12  F6  UNL     1       1.971   4.160  20.121  0.00  0.00    +0.000 F 
ATOM     13  C16 UNL     1       2.056   1.822  20.563  0.00  0.00    +0.000 C 
BRANCH  13  14
ATOM     14  C17 UNL     1       3.504   2.074  20.974  0.00  0.00    +0.000 C 
ATOM     15  O1  UNL     1       4.412   2.138  20.142  0.00  0.00    +0.000 OA
BRANCH  14  16
ATOM     16  C18 UNL     1       3.785   2.189  22.470  0.00  0.00    +0.000 C 
ATOM     17  C19 UNL     1       3.769   3.660  22.869  0.00  0.00    +0.000 C 
ATOM     18  C20 UNL     1       2.769   1.383  23.271  0.00  0.00    +0.000 C 
ENDBRANCH  14  16
ENDBRANCH  13  14
ENDBRANCH   5   8
BRANCH   4  19
ATOM     19  C5  UNL     1       1.743  -2.364  20.079  0.00  0.00    +0.000 C 
ATOM     20  C6  UNL     1       2.067  -3.323  19.192  0.00  0.00    +0.000 C 
BRANCH  20  21
ATOM     21  C7  UNL     1       1.404  -3.857  17.917  0.00  0.00    +0.000 C 
ATOM     22 CL1  UNL     1       2.189  -5.505  17.670  0.00  0.00    +0.000 Cl
ATOM     23 CL2  UNL     1      -0.351  -4.241  18.171  0.00  0.00    +0.000 Cl
BRANCH  21  24
ATOM     24  C8  UNL     1       1.593  -2.943  16.631  0.00  0.00    +0.000 C 
ATOM     25 CL3  UNL     1       0.301  -1.630  16.613  0.00  0.00    +0.000 Cl
ATOM     26 CL4  UNL     1       3.169  -2.023  16.726  0.00  0.00    +0.000 Cl
BRANCH  24  27
ATOM     27  C9  UNL     1       1.498  -3.773  15.332  0.00  0.00    +0.000 C 
ATOM     28  F1  UNL     1       0.483  -4.686  15.469  0.00  0.00    +0.000 F 
ATOM     29  F2  UNL     1       2.626  -4.527  15.169  0.00  0.00    +0.000 F 
BRANCH  27  30
ATOM     30  C10 UNL     1       1.261  -2.979  14.047  0.00  0.00    +0.000 C 
ATOM     31  F3  UNL     1       1.720  -3.664  12.966  0.00  0.00    +0.000 F 
ATOM     32  F4  UNL     1      -0.048  -2.733  13.815  0.00  0.00    +0.000 F 
ATOM     33  F5  UNL     1       1.898  -1.787  14.038  0.00  0.00    +0.000 F 
ENDBRANCH  27  30
ENDBRANCH  24  27
ENDBRANCH  21  24
ENDBRANCH  20  21
ENDBRANCH   4  19
TORSDOF 8
ENDMDL
MODEL 8
REMARK VINA RESULT:    -6.585     22.456     25.337
REMARK INTER + INTRA:         -11.182
REMARK INTER:                  -9.396
REMARK INTRA:                  -1.786
REMARK UNBOUND:                -1.517
REMARK  Name = teste_validacao_ia\MutanteIA_Top3.pdb
REMARK  11 active torsions:
REMARK  status: ('A' for Active; 'I' for Inactive)
REMARK    1  A    between atoms: C1_1  and  C2_2
REMARK    2  A    between atoms: C4_4  and  C5_5
REMARK    3  A    between atoms: C6_6  and  C7_7
REMARK    4  A    between atoms: C7_7  and  C8_10
REMARK    5  A    between atoms: C8_10  and  C9_13
REMARK    6  A    between atoms: C9_13  and  C10_16
REMARK    7  A    between atoms: C11_20  and  C12_21
REMARK    8  A    between atoms: C16_26  and  C17_27
REMARK    9  A    between atoms: C17_27  and  C18_29
REMARK   10  A    between atoms: C18_29  and  C19_30
REMARK   11  A    between atoms: C18_29  and  C20_31
REMARK                            x       y       z     vdW  Elec       q    Type
REMARK                         _______ _______ _______ _____ _____    ______ ____
ROOT
ATOM      1  C1  UNL     1       0.543  -0.738  12.564  0.00  0.00    +0.000 C 
ATOM      2  C2  UNL     1       0.436  -1.336  13.934  0.00  0.00    +0.000 C 
ATOM      3  C3  UNL     1       0.428  -0.518  15.054  0.00  0.00    +0.000 C 
ATOM      4  C4  UNL     1       0.322  -1.101  16.322  0.00  0.00    +0.000 C 
ATOM      5  C11 UNL     1       0.212  -2.498  16.447  0.00  0.00    +0.000 C 
ATOM      6  C21 UNL     1       0.242  -3.222  15.256  0.00  0.00    +0.000 C 
ATOM      7  N1  UNL     1       0.359  -2.681  14.022  0.00  0.00    +0.000 NA
ENDROOT
BRANCH   5   8
ATOM      8  C12 UNL     1       0.100  -3.168  17.809  0.00  0.00    +0.000 C 
ATOM      9  C13 UNL     1      -0.046  -4.709  17.800  0.00  0.00    +0.000 C 
ATOM     10  C14 UNL     1       1.265  -5.282  18.339  0.00  0.00    +0.000 C 
ATOM     11  C15 UNL     1       2.226  -4.110  18.390  0.00  0.00    +0.000 C 
ATOM     12  F6  UNL     1       3.158  -4.287  19.352  0.00  0.00    +0.000 F 
ATOM     13  C16 UNL     1       1.356  -2.896  18.658  0.00  0.00    +0.000 C 
BRANCH  13  14
ATOM     14  C17 UNL     1       1.033  -2.776  20.145  0.00  0.00    +0.000 C 
ATOM     15  O1  UNL     1       0.169  -3.475  20.678  0.00  0.00    +0.000 OA
BRANCH  14  16
ATOM     16  C18 UNL     1       1.793  -1.711  20.931  0.00  0.00    +0.000 C 
ATOM     17  C19 UNL     1       0.847  -0.559  21.251  0.00  0.00    +0.000 C 
ATOM     18  C20 UNL     1       2.397  -2.306  22.198  0.00  0.00    +0.000 C 
ENDBRANCH  14  16
ENDBRANCH  13  14
ENDBRANCH   5   8
BRANCH   4  19
ATOM     19  C5  UNL     1       0.350  -0.209  17.486  0.00  0.00    +0.000 C 
ATOM     20  C6  UNL     1      -0.602   0.647  17.900  0.00  0.00    +0.000 C 
BRANCH  20  21
ATOM     21  C7  UNL     1      -2.012   0.987  17.403  0.00  0.00    +0.000 C 
ATOM     22 CL1  UNL     1      -2.351   2.641  18.138  0.00  0.00    +0.000 Cl
ATOM     23 CL2  UNL     1      -2.052   1.283  15.614  0.00  0.00    +0.000 Cl
BRANCH  21  24
ATOM     24  C8  UNL     1      -3.137  -0.057  17.819  0.00  0.00    +0.000 C 
ATOM     25 CL3  UNL     1      -4.795   0.725  17.654  0.00  0.00    +0.000 Cl
ATOM     26 CL4  UNL     1      -3.178  -1.455  16.643  0.00  0.00    +0.000 Cl
BRANCH  24  27
ATOM     27  C9  UNL     1      -2.942  -0.543  19.272  0.00  0.00    +0.000 C 
ATOM     28  F1  UNL     1      -2.411   0.484  20.010  0.00  0.00    +0.000 F 
ATOM     29  F2  UNL     1      -1.998  -1.530  19.318  0.00  0.00    +0.000 F 
BRANCH  27  30
ATOM     30  C10 UNL     1      -4.199  -1.047  19.983  0.00  0.00    +0.000 C 
ATOM     31  F3  UNL     1      -3.886  -2.007  20.892  0.00  0.00    +0.000 F 
ATOM     32  F4  UNL     1      -4.844  -0.073  20.663  0.00  0.00    +0.000 F 
ATOM     33  F5  UNL     1      -5.095  -1.603  19.138  0.00  0.00    +0.000 F 
ENDBRANCH  27  30
ENDBRANCH  24  27
ENDBRANCH  21  24
ENDBRANCH  20  21
ENDBRANCH   4  19
TORSDOF 8
ENDMDL
MODEL 9
REMARK VINA RESULT:    -6.377     21.445     23.717
REMARK INTER + INTRA:         -10.876
REMARK INTER:                  -9.004
REMARK INTRA:                  -1.872
REMARK UNBOUND:                -1.517
REMARK  Name = teste_validacao_ia\MutanteIA_Top3.pdb
REMARK  11 active torsions:
REMARK  status: ('A' for Active; 'I' for Inactive)
REMARK    1  A    between atoms: C1_1  and  C2_2
REMARK    2  A    between atoms: C4_4  and  C5_5
REMARK    3  A    between atoms: C6_6  and  C7_7
REMARK    4  A    between atoms: C7_7  and  C8_10
REMARK    5  A    between atoms: C8_10  and  C9_13
REMARK    6  A    between atoms: C9_13  and  C10_16
REMARK    7  A    between atoms: C11_20  and  C12_21
REMARK    8  A    between atoms: C16_26  and  C17_27
REMARK    9  A    between atoms: C17_27  and  C18_29
REMARK   10  A    between atoms: C18_29  and  C19_30
REMARK   11  A    between atoms: C18_29  and  C20_31
REMARK                            x       y       z     vdW  Elec       q    Type
REMARK                         _______ _______ _______ _____ _____    ______ ____
ROOT
ATOM      1  C1  UNL     1       0.194  -1.325  12.331  0.00  0.00    +0.000 C 
ATOM      2  C2  UNL     1       0.562  -1.105  13.766  0.00  0.00    +0.000 C 
ATOM      3  C3  UNL     1       1.566  -1.862  14.354  0.00  0.00    +0.000 C 
ATOM      4  C4  UNL     1       1.894  -1.634  15.696  0.00  0.00    +0.000 C 
ATOM      5  C11 UNL     1       1.217  -0.639  16.426  0.00  0.00    +0.000 C 
ATOM      6  C21 UNL     1       0.220   0.051  15.739  0.00  0.00    +0.000 C 
ATOM      7  N1  UNL     1      -0.123  -0.163  14.449  0.00  0.00    +0.000 NA
ENDROOT
BRANCH   5   8
ATOM      8  C12 UNL     1       1.544  -0.366  17.887  0.00  0.00    +0.000 C 
ATOM      9  C13 UNL     1       2.321   0.940  18.178  0.00  0.00    +0.000 C 
ATOM     10  C14 UNL     1       1.349   1.888  18.882  0.00  0.00    +0.000 C 
ATOM     11  C15 UNL     1      -0.016   1.240  18.745  0.00  0.00    +0.000 C 
ATOM     12  F6  UNL     1      -0.826   1.594  19.766  0.00  0.00    +0.000 F 
ATOM     13  C16 UNL     1       0.255  -0.253  18.724  0.00  0.00    +0.000 C 
BRANCH  13  14
ATOM     14  C17 UNL     1       0.437  -0.792  20.140  0.00  0.00    +0.000 C 
ATOM     15  O1  UNL     1      -0.499  -0.839  20.940  0.00  0.00    +0.000 OA
BRANCH  14  16
ATOM     16  C18 UNL     1       1.848  -1.218  20.538  0.00  0.00    +0.000 C 
ATOM     17  C19 UNL     1       2.255  -0.472  21.804  0.00  0.00    +0.000 C 
ATOM     18  C20 UNL     1       1.919  -2.728  20.733  0.00  0.00    +0.000 C 
ENDBRANCH  14  16
ENDBRANCH  13  14
ENDBRANCH   5   8
BRANCH   4  19
ATOM     19  C5  UNL     1       2.937  -2.473  16.293  0.00  0.00    +0.000 C 
ATOM     20  C6  UNL     1       2.807  -3.693  16.846  0.00  0.00    +0.000 C 
BRANCH  20  21
ATOM     21  C7  UNL     1       1.627  -4.657  17.024  0.00  0.00    +0.000 C 
ATOM     22 CL1  UNL     1       2.204  -5.822  18.328  0.00  0.00    +0.000 Cl
ATOM     23 CL2  UNL     1       0.187  -3.842  17.768  0.00  0.00    +0.000 Cl
BRANCH  21  24
ATOM     24  C8  UNL     1       1.203  -5.445  15.709  0.00  0.00    +0.000 C 
ATOM     25 CL3  UNL     1      -0.218  -4.590  14.910  0.00  0.00    +0.000 Cl
ATOM     26 CL4  UNL     1       2.536  -5.369  14.461  0.00  0.00    +0.000 Cl
BRANCH  24  27
ATOM     27  C9  UNL     1       0.809  -6.903  16.031  0.00  0.00    +0.000 C 
ATOM     28  F1  UNL     1       0.009  -6.904  17.146  0.00  0.00    +0.000 F 
ATOM     29  F2  UNL     1       1.912  -7.623  16.392  0.00  0.00    +0.000 F 
BRANCH  27  30
ATOM     30  C10 UNL     1       0.084  -7.660  14.918  0.00  0.00    +0.000 C 
ATOM     31  F3  UNL     1      -1.255  -7.431  14.973  0.00  0.00    +0.000 F 
ATOM     32  F4  UNL     1       0.484  -7.289  13.682  0.00  0.00    +0.000 F 
ATOM     33  F5  UNL     1       0.242  -9.000  15.002  0.00  0.00    +0.000 F 
ENDBRANCH  27  30
ENDBRANCH  24  27
ENDBRANCH  21  24
ENDBRANCH  20  21
ENDBRANCH   4  19
TORSDOF 8
ENDMDL
