MODEL 1
REMARK VINA RESULT:    -7.105      0.000      0.000
REMARK INTER + INTRA:         -12.685
REMARK INTER:                 -10.012
REMARK INTRA:                  -2.673
REMARK UNBOUND:                -2.673
REMARK  Name = teste_validacao_ia\MutanteIA_Top1.pdb
REMARK  10 active torsions:
REMARK  status: ('A' for Active; 'I' for Inactive)
REMARK    1  A    between atoms: C1_1  and  C2_2
REMARK    2  A    between atoms: C4_4  and  C5_5
REMARK    3  A    between atoms: C6_6  and  C7_7
REMARK    4  A    between atoms: C7_7  and  C8_10
REMARK    5  A    between atoms: C8_10  and  C9_13
REMARK    6  A    between atoms: C10_17  and  C11_18
REMARK    7  A    between atoms: C15_23  and  C16_24
REMARK    8  A    between atoms: C16_24  and  C17_26
REMARK    9  A    between atoms: C17_26  and  C18_27
REMARK   10  A    between atoms: C17_26  and  C19_28
REMARK                            x       y       z     vdW  Elec       q    Type
REMARK                         _______ _______ _______ _____ _____    ______ ____
ROOT
ATOM      1  C1  UNL     1      13.831  45.617  62.505  0.00  0.00    +0.000 C 
ATOM      2  C2  UNL     1      14.382  46.560  61.480  0.00  0.00    +0.000 C 
ATOM      3  C3  UNL     1      14.013  46.442  60.147  0.00  0.00    +0.000 C 
ATOM      4  C4  UNL     1      14.537  47.333  59.198  0.00  0.00    +0.000 C 
ATOM      5  C10 UNL     1      15.427  48.339  59.610  0.00  0.00    +0.000 C 
ATOM      6  C20 UNL     1      15.741  48.351  60.973  0.00  0.00    +0.000 C 
ATOM      7  N1  UNL     1      15.248  47.501  61.901  0.00  0.00    +0.000 NA
ENDROOT
BRANCH   5   8
ATOM      8  C11 UNL     1      16.082  49.383  58.723  0.00  0.00    +0.000 C 
ATOM      9  C12 UNL     1      17.025  48.790  57.650  0.00  0.00    +0.000 C 
ATOM     10  C13 UNL     1      16.533  49.327  56.313  0.00  0.00    +0.000 C 
ATOM     11  C14 UNL     1      15.848  50.635  56.666  0.00  0.00    +0.000 C 
ATOM     12  F4  UNL     1      14.972  50.974  55.694  0.00  0.00    +0.000 F 
ATOM     13  C15 UNL     1      15.124  50.317  57.962  0.00  0.00    +0.000 C 
BRANCH  13  14
ATOM     14  C16 UNL     1      14.596  51.536  58.712  0.00  0.00    +0.000 C 
ATOM     15  O1  UNL     1      15.145  52.629  58.507  0.00  0.00    +0.000 OA
BRANCH  14  16
ATOM     16  C17 UNL     1      13.379  51.515  59.641  0.00  0.00    +0.000 C 
ATOM     17  C18 UNL     1      12.286  50.607  59.083  0.00  0.00    +0.000 C 
ATOM     18  C19 UNL     1      13.621  51.249  61.117  0.00  0.00    +0.000 C 
ENDBRANCH  14  16
ENDBRANCH  13  14
ENDBRANCH   5   8
BRANCH   4  19
ATOM     19  C5  UNL     1      14.120  47.118  57.805  0.00  0.00    +0.000 C 
ATOM     20  C6  UNL     1      12.897  47.484  57.378  0.00  0.00    +0.000 C 
BRANCH  20  21
ATOM     21  C7  UNL     1      12.253  47.300  55.995  0.00  0.00    +0.000 C 
ATOM     22 CL1  UNL     1      12.075  45.528  55.637  0.00  0.00    +0.000 Cl
ATOM     23 CL2  UNL     1      13.513  47.887  54.820  0.00  0.00    +0.000 Cl
BRANCH  21  24
ATOM     24  C8  UNL     1      10.900  48.067  55.844  0.00  0.00    +0.000 C 
ATOM     25 CL3  UNL     1       9.907  47.973  57.388  0.00  0.00    +0.000 Cl
ATOM     26 CL4  UNL     1       9.845  47.244  54.579  0.00  0.00    +0.000 Cl
BRANCH  24  27
ATOM     27  C9  UNL     1      11.064  49.541  55.461  0.00  0.00    +0.000 C 
ATOM     28  F1  UNL     1      12.210  50.084  55.931  0.00  0.00    +0.000 F 
ATOM     29  F2  UNL     1      10.049  50.317  55.899  0.00  0.00    +0.000 F 
ATOM     30  F3  UNL     1      11.105  49.698  54.111  0.00  0.00    +0.000 F 
ENDBRANCH  24  27
ENDBRANCH  21  24
ENDBRANCH  20  21
ENDBRANCH   4  19
TORSDOF 7
ENDMDL
MODEL 2
REMARK VINA RESULT:    -7.025      1.524      2.923
REMARK INTER + INTRA:         -12.573
REMARK INTER:                 -10.249
REMARK INTRA:                  -2.324
REMARK UNBOUND:                -2.673
REMARK  Name = teste_validacao_ia\MutanteIA_Top1.pdb
REMARK  10 active torsions:
REMARK  status: ('A' for Active; 'I' for Inactive)
REMARK    1  A    between atoms: C1_1  and  C2_2
REMARK    2  A    between atoms: C4_4  and  C5_5
REMARK    3  A    between atoms: C6_6  and  C7_7
REMARK    4  A    between atoms: C7_7  and  C8_10
REMARK    5  A    between atoms: C8_10  and  C9_13
REMARK    6  A    between atoms: C10_17  and  C11_18
REMARK    7  A    between atoms: C15_23  and  C16_24
REMARK    8  A    between atoms: C16_24  and  C17_26
REMARK    9  A    between atoms: C17_26  and  C18_27
REMARK   10  A    between atoms: C17_26  and  C19_28
REMARK                            x       y       z     vdW  Elec       q    Type
REMARK                         _______ _______ _______ _____ _____    ______ ____
ROOT
ATOM      1  C1  UNL     1      14.461  45.001  61.881  0.00  0.00    +0.000 C 
ATOM      2  C2  UNL     1      14.288  46.346  61.245  0.00  0.00    +0.000 C 
ATOM      3  C3  UNL     1      13.899  46.451  59.917  0.00  0.00    +0.000 C 
ATOM      4  C4  UNL     1      13.742  47.718  59.335  0.00  0.00    +0.000 C 
ATOM      5  C10 UNL     1      13.973  48.869  60.108  0.00  0.00    +0.000 C 
ATOM      6  C20 UNL     1      14.377  48.642  61.428  0.00  0.00    +0.000 C 
ATOM      7  N1  UNL     1      14.536  47.430  62.005  0.00  0.00    +0.000 NA
ENDROOT
BRANCH   5   8
ATOM      8  C11 UNL     1      13.846  50.308  59.643  0.00  0.00    +0.000 C 
ATOM      9  C12 UNL     1      13.358  51.280  60.743  0.00  0.00    +0.000 C 
ATOM     10  C13 UNL     1      14.401  52.387  60.819  0.00  0.00    +0.000 C 
ATOM     11  C14 UNL     1      15.019  52.413  59.434  0.00  0.00    +0.000 C 
ATOM     12  F4  UNL     1      16.243  52.985  59.486  0.00  0.00    +0.000 F 
ATOM     13  C15 UNL     1      15.122  50.944  59.064  0.00  0.00    +0.000 C 
BRANCH  13  14
ATOM     14  C16 UNL     1      15.429  50.678  57.594  0.00  0.00    +0.000 C 
ATOM     15  O1  UNL     1      14.785  51.307  56.741  0.00  0.00    +0.000 OA
BRANCH  14  16
ATOM     16  C17 UNL     1      16.537  49.742  57.101  0.00  0.00    +0.000 C 
ATOM     17  C18 UNL     1      16.958  48.773  58.203  0.00  0.00    +0.000 C 
ATOM     18  C19 UNL     1      16.320  49.023  55.781  0.00  0.00    +0.000 C 
ENDBRANCH  14  16
ENDBRANCH  13  14
ENDBRANCH   5   8
BRANCH   4  19
ATOM     19  C5  UNL     1      13.360  47.739  57.916  0.00  0.00    +0.000 C 
ATOM     20  C6  UNL     1      12.114  48.073  57.533  0.00  0.00    +0.000 C 
BRANCH  20  21
ATOM     21  C7  UNL     1      11.504  48.103  56.123  0.00  0.00    +0.000 C 
ATOM     22 CL1  UNL     1      11.728  46.484  55.328  0.00  0.00    +0.000 Cl
ATOM     23 CL2  UNL     1      12.576  49.234  55.182  0.00  0.00    +0.000 Cl
BRANCH  21  24
ATOM     24  C8  UNL     1      10.009  48.558  56.113  0.00  0.00    +0.000 C 
ATOM     25 CL3  UNL     1       9.727  49.937  57.296  0.00  0.00    +0.000 Cl
ATOM     26 CL4  UNL     1       8.931  47.202  56.734  0.00  0.00    +0.000 Cl
BRANCH  24  27
ATOM     27  C9  UNL     1       9.504  48.991  54.733  0.00  0.00    +0.000 C 
ATOM     28  F1  UNL     1       8.163  48.876  54.601  0.00  0.00    +0.000 F 
ATOM     29  F2  UNL     1      10.062  48.290  53.722  0.00  0.00    +0.000 F 
ATOM     30  F3  UNL     1       9.790  50.298  54.490  0.00  0.00    +0.000 F 
ENDBRANCH  24  27
ENDBRANCH  21  24
ENDBRANCH  20  21
ENDBRANCH   4  19
TORSDOF 7
ENDMDL
MODEL 3
REMARK VINA RESULT:    -6.962      2.274      3.817
REMARK INTER + INTRA:         -12.484
REMARK INTER:                 -10.599
REMARK INTRA:                  -1.885
REMARK UNBOUND:                -2.673
REMARK  Name = teste_validacao_ia\MutanteIA_Top1.pdb
REMARK  10 active torsions:
REMARK  status: ('A' for Active; 'I' for Inactive)
REMARK    1  A    between atoms: C1_1  and  C2_2
REMARK    2  A    between atoms: C4_4  and  C5_5
REMARK    3  A    between atoms: C6_6  and  C7_7
REMARK    4  A    between atoms: C7_7  and  C8_10
REMARK    5  A    between atoms: C8_10  and  C9_13
REMARK    6  A    between atoms: C10_17  and  C11_18
REMARK    7  A    between atoms: C15_23  and  C16_24
REMARK    8  A    between atoms: C16_24  and  C17_26
REMARK    9  A    between atoms: C17_26  and  C18_27
REMARK   10  A    between atoms: C17_26  and  C19_28
REMARK                            x       y       z     vdW  Elec       q    Type
REMARK                         _______ _______ _______ _____ _____    ______ ____
ROOT
ATOM      1  C1  UNL     1      16.833  47.984  55.141  0.00  0.00    +0.000 C 
ATOM      2  C2  UNL     1      16.197  48.126  56.490  0.00  0.00    +0.000 C 
ATOM      3  C3  UNL     1      14.834  47.916  56.650  0.00  0.00    +0.000 C 
ATOM      4  C4  UNL     1      14.252  48.053  57.920  0.00  0.00    +0.000 C 
ATOM      5  C10 UNL     1      15.059  48.396  59.018  0.00  0.00    +0.000 C 
ATOM      6  C20 UNL     1      16.414  48.600  58.735  0.00  0.00    +0.000 C 
ATOM      7  N1  UNL     1      16.992  48.474  57.520  0.00  0.00    +0.000 NA
ENDROOT
BRANCH   5   8
ATOM      8  C11 UNL     1      14.599  48.580  60.453  0.00  0.00    +0.000 C 
ATOM      9  C12 UNL     1      14.940  47.388  61.377  0.00  0.00    +0.000 C 
ATOM     10  C13 UNL     1      15.722  47.972  62.547  0.00  0.00    +0.000 C 
ATOM     11  C14 UNL     1      15.248  49.411  62.630  0.00  0.00    +0.000 C 
ATOM     12  F4  UNL     1      16.167  50.163  63.277  0.00  0.00    +0.000 F 
ATOM     13  C15 UNL     1      15.130  49.831  61.175  0.00  0.00    +0.000 C 
BRANCH  13  14
ATOM     14  C16 UNL     1      14.381  51.140  60.949  0.00  0.00    +0.000 C 
ATOM     15  O1  UNL     1      13.217  51.224  61.370  0.00  0.00    +0.000 OA
BRANCH  14  16
ATOM     16  C17 UNL     1      14.997  52.385  60.306  0.00  0.00    +0.000 C 
ATOM     17  C18 UNL     1      16.299  52.768  61.004  0.00  0.00    +0.000 C 
ATOM     18  C19 UNL     1      15.152  52.398  58.795  0.00  0.00    +0.000 C 
ENDBRANCH  14  16
ENDBRANCH  13  14
ENDBRANCH   5   8
BRANCH   4  19
ATOM     19  C5  UNL     1      12.799  47.846  57.995  0.00  0.00    +0.000 C 
ATOM     20  C6  UNL     1      12.066  47.637  56.886  0.00  0.00    +0.000 C 
BRANCH  20  21
ATOM     21  C7  UNL     1      10.546  47.456  56.743  0.00  0.00    +0.000 C 
ATOM     22 CL1  UNL     1       9.883  46.670  58.241  0.00  0.00    +0.000 Cl
ATOM     23 CL2  UNL     1      10.354  46.204  55.436  0.00  0.00    +0.000 Cl
BRANCH  21  24
ATOM     24  C8  UNL     1       9.802  48.787  56.401  0.00  0.00    +0.000 C 
ATOM     25 CL3  UNL     1       9.755  49.914  57.853  0.00  0.00    +0.000 Cl
ATOM     26 CL4  UNL     1       8.030  48.445  56.038  0.00  0.00    +0.000 Cl
BRANCH  24  27
ATOM     27  C9  UNL     1      10.406  49.547  55.216  0.00  0.00    +0.000 C 
ATOM     28  F1  UNL     1      10.640  48.755  54.145  0.00  0.00    +0.000 F 
ATOM     29  F2  UNL     1      11.573  50.157  55.519  0.00  0.00    +0.000 F 
ATOM     30  F3  UNL     1       9.570  50.525  54.778  0.00  0.00    +0.000 F 
ENDBRANCH  24  27
ENDBRANCH  21  24
ENDBRANCH  20  21
ENDBRANCH   4  19
TORSDOF 7
ENDMDL
MODEL 4
REMARK VINA RESULT:    -6.843      2.399      3.920
REMARK INTER + INTRA:         -12.317
REMARK INTER:                 -10.416
REMARK INTRA:                  -1.901
REMARK UNBOUND:                -2.673
REMARK  Name = teste_validacao_ia\MutanteIA_Top1.pdb
REMARK  10 active torsions:
REMARK  status: ('A' for Active; 'I' for Inactive)
REMARK    1  A    between atoms: C1_1  and  C2_2
REMARK    2  A    between atoms: C4_4  and  C5_5
REMARK    3  A    between atoms: C6_6  and  C7_7
REMARK    4  A    between atoms: C7_7  and  C8_10
REMARK    5  A    between atoms: C8_10  and  C9_13
REMARK    6  A    between atoms: C10_17  and  C11_18
REMARK    7  A    between atoms: C15_23  and  C16_24
REMARK    8  A    between atoms: C16_24  and  C17_26
REMARK    9  A    between atoms: C17_26  and  C18_27
REMARK   10  A    between atoms: C17_26  and  C19_28
REMARK                            x       y       z     vdW  Elec       q    Type
REMARK                         _______ _______ _______ _____ _____    ______ ____
ROOT
ATOM      1  C1  UNL     1      15.727  45.313  55.895  0.00  0.00    +0.000 C 
ATOM      2  C2  UNL     1      15.626  46.589  56.673  0.00  0.00    +0.000 C 
ATOM      3  C3  UNL     1      14.386  47.153  56.940  0.00  0.00    +0.000 C 
ATOM      4  C4  UNL     1      14.308  48.349  57.670  0.00  0.00    +0.000 C 
ATOM      5  C10 UNL     1      15.488  48.959  58.129  0.00  0.00    +0.000 C 
ATOM      6  C20 UNL     1      16.679  48.311  57.786  0.00  0.00    +0.000 C 
ATOM      7  N1  UNL     1      16.774  47.161  57.083  0.00  0.00    +0.000 NA
ENDROOT
BRANCH   5   8
ATOM      8  C11 UNL     1      15.585  50.244  58.931  0.00  0.00    +0.000 C 
ATOM      9  C12 UNL     1      15.101  51.498  58.166  0.00  0.00    +0.000 C 
ATOM     10  C13 UNL     1      14.035  52.141  59.042  0.00  0.00    +0.000 C 
ATOM     11  C14 UNL     1      14.396  51.704  60.450  0.00  0.00    +0.000 C 
ATOM     12  F4  UNL     1      13.310  51.787  61.251  0.00  0.00    +0.000 F 
ATOM     13  C15 UNL     1      14.830  50.260  60.273  0.00  0.00    +0.000 C 
BRANCH  13  14
ATOM     14  C16 UNL     1      15.539  49.656  61.480  0.00  0.00    +0.000 C 
ATOM     15  O1  UNL     1      15.953  50.427  62.359  0.00  0.00    +0.000 OA
BRANCH  14  16
ATOM     16  C17 UNL     1      15.704  48.152  61.718  0.00  0.00    +0.000 C 
ATOM     17  C18 UNL     1      16.042  47.868  63.180  0.00  0.00    +0.000 C 
ATOM     18  C19 UNL     1      14.608  47.231  61.213  0.00  0.00    +0.000 C 
ENDBRANCH  14  16
ENDBRANCH  13  14
ENDBRANCH   5   8
BRANCH   4  19
ATOM     19  C5  UNL     1      12.959  48.895  57.880  0.00  0.00    +0.000 C 
ATOM     20  C6  UNL     1      11.871  48.278  57.383  0.00  0.00    +0.000 C 
BRANCH  20  21
ATOM     21  C7  UNL     1      10.397  48.708  57.441  0.00  0.00    +0.000 C 
ATOM     22 CL1  UNL     1      10.250  50.259  58.376  0.00  0.00    +0.000 Cl
ATOM     23 CL2  UNL     1       9.595  47.455  58.490  0.00  0.00    +0.000 Cl
BRANCH  21  24
ATOM     24  C8  UNL     1       9.734  48.810  56.029  0.00  0.00    +0.000 C 
ATOM     25 CL3  UNL     1       9.561  47.151  55.255  0.00  0.00    +0.000 Cl
ATOM     26 CL4  UNL     1      10.836  49.732  54.879  0.00  0.00    +0.000 Cl
BRANCH  24  27
ATOM     27  C9  UNL     1       8.360  49.487  56.039  0.00  0.00    +0.000 C 
ATOM     28  F1  UNL     1       8.431  50.827  55.875  0.00  0.00    +0.000 F 
ATOM     29  F2  UNL     1       7.669  49.265  57.179  0.00  0.00    +0.000 F 
ATOM     30  F3  UNL     1       7.576  49.030  55.027  0.00  0.00    +0.000 F 
ENDBRANCH  24  27
ENDBRANCH  21  24
ENDBRANCH  20  21
ENDBRANCH   4  19
TORSDOF 7
ENDMDL
MODEL 5
REMARK VINA RESULT:    -6.820     20.313     22.991
REMARK INTER + INTRA:         -12.284
REMARK INTER:                 -10.173
REMARK INTRA:                  -2.111
REMARK UNBOUND:                -2.673
REMARK  Name = teste_validacao_ia\MutanteIA_Top1.pdb
REMARK  10 active torsions:
REMARK  status: ('A' for Active; 'I' for Inactive)
REMARK    1  A    between atoms: C1_1  and  C2_2
REMARK    2  A    between atoms: C4_4  and  C5_5
REMARK    3  A    between atoms: C6_6  and  C7_7
REMARK    4  A    between atoms: C7_7  and  C8_10
REMARK    5  A    between atoms: C8_10  and  C9_13
REMARK    6  A    between atoms: C10_17  and  C11_18
REMARK    7  A    between atoms: C15_23  and  C16_24
REMARK    8  A    between atoms: C16_24  and  C17_26
REMARK    9  A    between atoms: C17_26  and  C18_27
REMARK   10  A    between atoms: C17_26  and  C19_28
REMARK                            x       y       z     vdW  Elec       q    Type
REMARK                         _______ _______ _______ _____ _____    ______ ____
ROOT
ATOM      1  C1  UNL     1      -0.220  62.547  76.992  0.00  0.00    +0.000 C 
ATOM      2  C2  UNL     1       0.066  62.486  75.523  0.00  0.00    +0.000 C 
ATOM      3  C3  UNL     1       0.160  61.262  74.875  0.00  0.00    +0.000 C 
ATOM      4  C4  UNL     1       0.429  61.221  73.498  0.00  0.00    +0.000 C 
ATOM      5  C10 UNL     1       0.594  62.423  72.789  0.00  0.00    +0.000 C 
ATOM      6  C20 UNL     1       0.496  63.594  73.548  0.00  0.00    +0.000 C 
ATOM      7  N1  UNL     1       0.239  63.653  74.874  0.00  0.00    +0.000 NA
ENDROOT
BRANCH   5   8
ATOM      8  C11 UNL     1       0.883  62.563  71.305  0.00  0.00    +0.000 C 
ATOM      9  C12 UNL     1       0.179  63.768  70.641  0.00  0.00    +0.000 C 
ATOM     10  C13 UNL     1       1.277  64.582  69.971  0.00  0.00    +0.000 C 
ATOM     11  C14 UNL     1       2.369  63.568  69.682  0.00  0.00    +0.000 C 
ATOM     12  F4  UNL     1       3.557  64.197  69.539  0.00  0.00    +0.000 F 
ATOM     13  C15 UNL     1       2.368  62.684  70.917  0.00  0.00    +0.000 C 
BRANCH  13  14
ATOM     14  C16 UNL     1       3.161  61.390  70.774  0.00  0.00    +0.000 C 
ATOM     15  O1  UNL     1       2.738  60.532  69.985  0.00  0.00    +0.000 OA
BRANCH  14  16
ATOM     16  C17 UNL     1       4.489  61.111  71.483  0.00  0.00    +0.000 C 
ATOM     17  C18 UNL     1       4.304  60.083  72.597  0.00  0.00    +0.000 C 
ATOM     18  C19 UNL     1       5.697  60.785  70.621  0.00  0.00    +0.000 C 
ENDBRANCH  14  16
ENDBRANCH  13  14
ENDBRANCH   5   8
BRANCH   4  19
ATOM     19  C5  UNL     1       0.543  59.885  72.898  0.00  0.00    +0.000 C 
ATOM     20  C6  UNL     1       0.908  58.818  73.633  0.00  0.00    +0.000 C 
BRANCH  20  21
ATOM     21  C7  UNL     1       1.138  57.364  73.192  0.00  0.00    +0.000 C 
ATOM     22 CL1  UNL     1       2.101  57.340  71.651  0.00  0.00    +0.000 Cl
ATOM     23 CL2  UNL     1      -0.513  56.761  72.718  0.00  0.00    +0.000 Cl
BRANCH  21  24
ATOM     24  C8  UNL     1       1.792  56.484  74.305  0.00  0.00    +0.000 C 
ATOM     25 CL3  UNL     1       3.370  57.221  74.893  0.00  0.00    +0.000 Cl
ATOM     26 CL4  UNL     1       2.286  54.852  73.611  0.00  0.00    +0.000 Cl
BRANCH  24  27
ATOM     27  C9  UNL     1       0.886  56.246  75.517  0.00  0.00    +0.000 C 
ATOM     28  F1  UNL     1       0.100  57.308  75.805  0.00  0.00    +0.000 F 
ATOM     29  F2  UNL     1       1.574  55.947  76.641  0.00  0.00    +0.000 F 
ATOM     30  F3  UNL     1       0.039  55.204  75.304  0.00  0.00    +0.000 F 
ENDBRANCH  24  27
ENDBRANCH  21  24
ENDBRANCH  20  21
ENDBRANCH   4  19
TORSDOF 7
ENDMDL
MODEL 6
REMARK VINA RESULT:    -6.726      2.173      3.313
REMARK INTER + INTRA:         -12.151
REMARK INTER:                  -9.973
REMARK INTRA:                  -2.178
REMARK UNBOUND:                -2.673
REMARK  Name = teste_validacao_ia\MutanteIA_Top1.pdb
REMARK  10 active torsions:
REMARK  status: ('A' for Active; 'I' for Inactive)
REMARK    1  A    between atoms: C1_1  and  C2_2
REMARK    2  A    between atoms: C4_4  and  C5_5
REMARK    3  A    between atoms: C6_6  and  C7_7
REMARK    4  A    between atoms: C7_7  and  C8_10
REMARK    5  A    between atoms: C8_10  and  C9_13
REMARK    6  A    between atoms: C10_17  and  C11_18
REMARK    7  A    between atoms: C15_23  and  C16_24
REMARK    8  A    between atoms: C16_24  and  C17_26
REMARK    9  A    between atoms: C17_26  and  C18_27
REMARK   10  A    between atoms: C17_26  and  C19_28
REMARK                            x       y       z     vdW  Elec       q    Type
REMARK                         _______ _______ _______ _____ _____    ______ ____
ROOT
ATOM      1  C1  UNL     1      14.068  44.592  62.666  0.00  0.00    +0.000 C 
ATOM      2  C2  UNL     1      14.049  45.876  61.895  0.00  0.00    +0.000 C 
ATOM      3  C3  UNL     1      13.295  45.988  60.736  0.00  0.00    +0.000 C 
ATOM      4  C4  UNL     1      13.287  47.197  60.024  0.00  0.00    +0.000 C 
ATOM      5  C10 UNL     1      14.040  48.285  60.499  0.00  0.00    +0.000 C 
ATOM      6  C20 UNL     1      14.774  48.052  61.666  0.00  0.00    +0.000 C 
ATOM      7  N1  UNL     1      14.796  46.894  62.364  0.00  0.00    +0.000 NA
ENDROOT
BRANCH   5   8
ATOM      8  C11 UNL     1      14.141  49.659  59.861  0.00  0.00    +0.000 C 
ATOM      9  C12 UNL     1      13.362  50.760  60.618  0.00  0.00    +0.000 C 
ATOM     10  C13 UNL     1      14.371  51.861  60.915  0.00  0.00    +0.000 C 
ATOM     11  C14 UNL     1      15.414  51.716  59.823  0.00  0.00    +0.000 C 
ATOM     12  F4  UNL     1      16.577  52.282  60.217  0.00  0.00    +0.000 F 
ATOM     13  C15 UNL     1      15.565  50.212  59.675  0.00  0.00    +0.000 C 
BRANCH  13  14
ATOM     14  C16 UNL     1      16.331  49.768  58.432  0.00  0.00    +0.000 C 
ATOM     15  O1  UNL     1      17.056  48.766  58.522  0.00  0.00    +0.000 OA
BRANCH  14  16
ATOM     16  C17 UNL     1      16.201  50.432  57.058  0.00  0.00    +0.000 C 
ATOM     17  C18 UNL     1      17.221  49.855  56.079  0.00  0.00    +0.000 C 
ATOM     18  C19 UNL     1      14.817  50.510  56.438  0.00  0.00    +0.000 C 
ENDBRANCH  14  16
ENDBRANCH  13  14
ENDBRANCH   5   8
BRANCH   4  19
ATOM     19  C5  UNL     1      12.488  47.221  58.791  0.00  0.00    +0.000 C 
ATOM     20  C6  UNL     1      11.186  47.561  58.809  0.00  0.00    +0.000 C 
BRANCH  20  21
ATOM     21  C7  UNL     1      10.173  47.594  57.654  0.00  0.00    +0.000 C 
ATOM     22 CL1  UNL     1       8.626  46.798  58.178  0.00  0.00    +0.000 Cl
ATOM     23 CL2  UNL     1      10.869  46.473  56.400  0.00  0.00    +0.000 Cl
BRANCH  21  24
ATOM     24  C8  UNL     1       9.931  49.032  57.093  0.00  0.00    +0.000 C 
ATOM     25 CL3  UNL     1       8.530  49.055  55.903  0.00  0.00    +0.000 Cl
ATOM     26 CL4  UNL     1      11.380  49.574  56.096  0.00  0.00    +0.000 Cl
BRANCH  24  27
ATOM     27  C9  UNL     1       9.664  50.081  58.177  0.00  0.00    +0.000 C 
ATOM     28  F1  UNL     1      10.795  50.649  58.653  0.00  0.00    +0.000 F 
ATOM     29  F2  UNL     1       8.994  49.584  59.240  0.00  0.00    +0.000 F 
ATOM     30  F3  UNL     1       8.908  51.105  57.699  0.00  0.00    +0.000 F 
ENDBRANCH  24  27
ENDBRANCH  21  24
ENDBRANCH  20  21
ENDBRANCH   4  19
TORSDOF 7
ENDMDL
MODEL 7
REMARK VINA RESULT:    -6.612      2.629      4.144
REMARK INTER + INTRA:         -11.991
REMARK INTER:                 -10.392
REMARK INTRA:                  -1.599
REMARK UNBOUND:                -2.673
REMARK  Name = teste_validacao_ia\MutanteIA_Top1.pdb
REMARK  10 active torsions:
REMARK  status: ('A' for Active; 'I' for Inactive)
REMARK    1  A    between atoms: C1_1  and  C2_2
REMARK    2  A    between atoms: C4_4  and  C5_5
REMARK    3  A    between atoms: C6_6  and  C7_7
REMARK    4  A    between atoms: C7_7  and  C8_10
REMARK    5  A    between atoms: C8_10  and  C9_13
REMARK    6  A    between atoms: C10_17  and  C11_18
REMARK    7  A    between atoms: C15_23  and  C16_24
REMARK    8  A    between atoms: C16_24  and  C17_26
REMARK    9  A    between atoms: C17_26  and  C18_27
REMARK   10  A    between atoms: C17_26  and  C19_28
REMARK                            x       y       z     vdW  Elec       q    Type
REMARK                         _______ _______ _______ _____ _____    ______ ____
ROOT
ATOM      1  C1  UNL     1      15.779  46.827  55.149  0.00  0.00    +0.000 C 
ATOM      2  C2  UNL     1      15.369  47.260  56.523  0.00  0.00    +0.000 C 
ATOM      3  C3  UNL     1      14.081  47.722  56.759  0.00  0.00    +0.000 C 
ATOM      4  C4  UNL     1      13.712  48.124  58.051  0.00  0.00    +0.000 C 
ATOM      5  C10 UNL     1      14.650  48.048  59.095  0.00  0.00    +0.000 C 
ATOM      6  C20 UNL     1      15.920  47.585  58.737  0.00  0.00    +0.000 C 
ATOM      7  N1  UNL     1      16.295  47.194  57.498  0.00  0.00    +0.000 NA
ENDROOT
BRANCH   5   8
ATOM      8  C11 UNL     1      14.420  48.436  60.545  0.00  0.00    +0.000 C 
ATOM      9  C12 UNL     1      14.579  47.262  61.539  0.00  0.00    +0.000 C 
ATOM     10  C13 UNL     1      15.609  47.715  62.565  0.00  0.00    +0.000 C 
ATOM     11  C14 UNL     1      15.500  49.229  62.559  0.00  0.00    +0.000 C 
ATOM     12  F4  UNL     1      16.640  49.776  63.038  0.00  0.00    +0.000 F 
ATOM     13  C15 UNL     1      15.312  49.565  61.090  0.00  0.00    +0.000 C 
BRANCH  13  14
ATOM     14  C16 UNL     1      14.869  50.999  60.817  0.00  0.00    +0.000 C 
ATOM     15  O1  UNL     1      13.727  51.332  61.168  0.00  0.00    +0.000 OA
BRANCH  14  16
ATOM     16  C17 UNL     1      15.769  52.078  60.209  0.00  0.00    +0.000 C 
ATOM     17  C18 UNL     1      15.089  52.742  59.015  0.00  0.00    +0.000 C 
ATOM     18  C19 UNL     1      16.373  53.108  61.148  0.00  0.00    +0.000 C 
ENDBRANCH  14  16
ENDBRANCH  13  14
ENDBRANCH   5   8
BRANCH   4  19
ATOM     19  C5  UNL     1      12.341  48.630  58.208  0.00  0.00    +0.000 C 
ATOM     20  C6  UNL     1      11.321  48.113  57.498  0.00  0.00    +0.000 C 
BRANCH  20  21
ATOM     21  C7  UNL     1       9.843  48.532  57.472  0.00  0.00    +0.000 C 
ATOM     22 CL1  UNL     1       9.668  50.198  58.175  0.00  0.00    +0.000 Cl
ATOM     23 CL2  UNL     1       9.033  47.433  58.676  0.00  0.00    +0.000 Cl
BRANCH  21  24
ATOM     24  C8  UNL     1       9.202  48.426  56.050  0.00  0.00    +0.000 C 
ATOM     25 CL3  UNL     1       8.922  46.671  55.578  0.00  0.00    +0.000 Cl
ATOM     26 CL4  UNL     1      10.377  49.054  54.780  0.00  0.00    +0.000 Cl
BRANCH  24  27
ATOM     27  C9  UNL     1       7.878  49.184  55.911  0.00  0.00    +0.000 C 
ATOM     28  F1  UNL     1       7.081  49.058  56.995  0.00  0.00    +0.000 F 
ATOM     29  F2  UNL     1       7.154  48.790  54.840  0.00  0.00    +0.000 F 
ATOM     30  F3  UNL     1       8.087  50.518  55.755  0.00  0.00    +0.000 F 
ENDBRANCH  24  27
ENDBRANCH  21  24
ENDBRANCH  20  21
ENDBRANCH   4  19
TORSDOF 7
ENDMDL
MODEL 8
REMARK VINA RESULT:    -6.525      1.837      3.154
REMARK INTER + INTRA:         -11.868
REMARK INTER:                  -9.322
REMARK INTRA:                  -2.546
REMARK UNBOUND:                -2.673
REMARK  Name = teste_validacao_ia\MutanteIA_Top1.pdb
REMARK  10 active torsions:
REMARK  status: ('A' for Active; 'I' for Inactive)
REMARK    1  A    between atoms: C1_1  and  C2_2
REMARK    2  A    between atoms: C4_4  and  C5_5
REMARK    3  A    between atoms: C6_6  and  C7_7
REMARK    4  A    between atoms: C7_7  and  C8_10
REMARK    5  A    between atoms: C8_10  and  C9_13
REMARK    6  A    between atoms: C10_17  and  C11_18
REMARK    7  A    between atoms: C15_23  and  C16_24
REMARK    8  A    between atoms: C16_24  and  C17_26
REMARK    9  A    between atoms: C17_26  and  C18_27
REMARK   10  A    between atoms: C17_26  and  C19_28
REMARK                            x       y       z     vdW  Elec       q    Type
REMARK                         _______ _______ _______ _____ _____    ______ ____
ROOT
ATOM      1  C1  UNL     1      14.127  45.673  62.010  0.00  0.00    +0.000 C 
ATOM      2  C2  UNL     1      13.885  46.820  61.077  0.00  0.00    +0.000 C 
ATOM      3  C3  UNL     1      13.051  46.667  59.978  0.00  0.00    +0.000 C 
ATOM      4  C4  UNL     1      12.833  47.749  59.112  0.00  0.00    +0.000 C 
ATOM      5  C10 UNL     1      13.458  48.981  59.373  0.00  0.00    +0.000 C 
ATOM      6  C20 UNL     1      14.290  49.014  60.497  0.00  0.00    +0.000 C 
ATOM      7  N1  UNL     1      14.513  47.981  61.341  0.00  0.00    +0.000 NA
ENDROOT
BRANCH   5   8
ATOM      8  C11 UNL     1      13.331  50.249  58.548  0.00  0.00    +0.000 C 
ATOM      9  C12 UNL     1      13.281  51.543  59.394  0.00  0.00    +0.000 C 
ATOM     10  C13 UNL     1      14.396  52.436  58.866  0.00  0.00    +0.000 C 
ATOM     11  C14 UNL     1      14.576  51.993  57.426  0.00  0.00    +0.000 C 
ATOM     12  F4  UNL     1      15.808  52.340  56.988  0.00  0.00    +0.000 F 
ATOM     13  C15 UNL     1      14.431  50.483  57.498  0.00  0.00    +0.000 C 
BRANCH  13  14
ATOM     14  C16 UNL     1      14.265  49.795  56.147  0.00  0.00    +0.000 C 
ATOM     15  O1  UNL     1      13.513  50.322  55.313  0.00  0.00    +0.000 OA
BRANCH  14  16
ATOM     16  C17 UNL     1      15.027  48.536  55.722  0.00  0.00    +0.000 C 
ATOM     17  C18 UNL     1      15.985  48.086  56.822  0.00  0.00    +0.000 C 
ATOM     18  C19 UNL     1      14.220  47.371  55.177  0.00  0.00    +0.000 C 
ENDBRANCH  14  16
ENDBRANCH  13  14
ENDBRANCH   5   8
BRANCH   4  19
ATOM     19  C5  UNL     1      11.963  47.493  57.956  0.00  0.00    +0.000 C 
ATOM     20  C6  UNL     1      10.647  47.770  57.998  0.00  0.00    +0.000 C 
BRANCH  20  21
ATOM     21  C7  UNL     1       9.566  47.528  56.932  0.00  0.00    +0.000 C 
ATOM     22 CL1  UNL     1       8.592  46.059  57.373  0.00  0.00    +0.000 Cl
ATOM     23 CL2  UNL     1      10.492  47.041  55.442  0.00  0.00    +0.000 Cl
BRANCH  21  24
ATOM     24  C8  UNL     1       8.662  48.778  56.684  0.00  0.00    +0.000 C 
ATOM     25 CL3  UNL     1       8.156  49.557  58.270  0.00  0.00    +0.000 Cl
ATOM     26 CL4  UNL     1       7.074  48.265  55.906  0.00  0.00    +0.000 Cl
BRANCH  24  27
ATOM     27  C9  UNL     1       9.314  49.848  55.803  0.00  0.00    +0.000 C 
ATOM     28  F1  UNL     1       8.662  51.032  55.839  0.00  0.00    +0.000 F 
ATOM     29  F2  UNL     1       9.401  49.484  54.505  0.00  0.00    +0.000 F 
ATOM     30  F3  UNL     1      10.585  50.113  56.208  0.00  0.00    +0.000 F 
ENDBRANCH  24  27
ENDBRANCH  21  24
ENDBRANCH  20  21
ENDBRANCH   4  19
TORSDOF 7
ENDMDL
MODEL 9
REMARK VINA RESULT:    -6.467      3.947      6.214
REMARK INTER + INTRA:         -11.787
REMARK INTER:                  -9.389
REMARK INTRA:                  -2.398
REMARK UNBOUND:                -2.673
REMARK  Name = teste_validacao_ia\MutanteIA_Top1.pdb
REMARK  10 active torsions:
REMARK  status: ('A' for Active; 'I' for Inactive)
REMARK    1  A    between atoms: C1_1  and  C2_2
REMARK    2  A    between atoms: C4_4  and  C5_5
REMARK    3  A    between atoms: C6_6  and  C7_7
REMARK    4  A    between atoms: C7_7  and  C8_10
REMARK    5  A    between atoms: C8_10  and  C9_13
REMARK    6  A    between atoms: C10_17  and  C11_18
REMARK    7  A    between atoms: C15_23  and  C16_24
REMARK    8  A    between atoms: C16_24  and  C17_26
REMARK    9  A    between atoms: C17_26  and  C18_27
REMARK   10  A    between atoms: C17_26  and  C19_28
REMARK                            x       y       z     vdW  Elec       q    Type
REMARK                         _______ _______ _______ _____ _____    ______ ____
ROOT
ATOM      1  C1  UNL     1       7.631  50.651  57.784  0.00  0.00    +0.000 C 
ATOM      2  C2  UNL     1       8.954  50.215  57.234  0.00  0.00    +0.000 C 
ATOM      3  C3  UNL     1       9.991  49.868  58.090  0.00  0.00    +0.000 C 
ATOM      4  C4  UNL     1      11.225  49.462  57.561  0.00  0.00    +0.000 C 
ATOM      5  C10 UNL     1      11.395  49.404  56.167  0.00  0.00    +0.000 C 
ATOM      6  C20 UNL     1      10.290  49.792  55.404  0.00  0.00    +0.000 C 
ATOM      7  N1  UNL     1       9.094  50.188  55.896  0.00  0.00    +0.000 NA
ENDROOT
BRANCH   5   8
ATOM      8  C11 UNL     1      12.654  48.985  55.429  0.00  0.00    +0.000 C 
ATOM      9  C12 UNL     1      13.621  50.153  55.128  0.00  0.00    +0.000 C 
ATOM     10  C13 UNL     1      14.966  49.751  55.718  0.00  0.00    +0.000 C 
ATOM     11  C14 UNL     1      14.936  48.234  55.713  0.00  0.00    +0.000 C 
ATOM     12  F4  UNL     1      15.818  47.753  56.618  0.00  0.00    +0.000 F 
ATOM     13  C15 UNL     1      13.510  47.905  56.117  0.00  0.00    +0.000 C 
BRANCH  13  14
ATOM     14  C16 UNL     1      13.106  46.451  55.900  0.00  0.00    +0.000 C 
ATOM     15  O1  UNL     1      13.495  45.887  54.866  0.00  0.00    +0.000 OA
BRANCH  14  16
ATOM     16  C17 UNL     1      12.317  45.616  56.913  0.00  0.00    +0.000 C 
ATOM     17  C18 UNL     1      12.991  45.647  58.282  0.00  0.00    +0.000 C 
ATOM     18  C19 UNL     1      10.823  45.864  57.023  0.00  0.00    +0.000 C 
ENDBRANCH  14  16
ENDBRANCH  13  14
ENDBRANCH   5   8
BRANCH   4  19
ATOM     19  C5  UNL     1      12.277  49.145  58.536  0.00  0.00    +0.000 C 
ATOM     20  C6  UNL     1      12.944  50.117  59.186  0.00  0.00    +0.000 C 
BRANCH  20  21
ATOM     21  C7  UNL     1      14.102  50.001  60.189  0.00  0.00    +0.000 C 
ATOM     22 CL1  UNL     1      14.685  48.281  60.251  0.00  0.00    +0.000 Cl
ATOM     23 CL2  UNL     1      13.333  50.289  61.813  0.00  0.00    +0.000 Cl
BRANCH  21  24
ATOM     24  C8  UNL     1      15.265  51.004  59.899  0.00  0.00    +0.000 C 
ATOM     25 CL3  UNL     1      16.529  50.254  58.795  0.00  0.00    +0.000 Cl
ATOM     26 CL4  UNL     1      16.183  51.373  61.452  0.00  0.00    +0.000 Cl
BRANCH  24  27
ATOM     27  C9  UNL     1      14.801  52.326  59.280  0.00  0.00    +0.000 C 
ATOM     28  F1  UNL     1      14.234  52.168  58.062  0.00  0.00    +0.000 F 
ATOM     29  F2  UNL     1      15.801  53.223  59.136  0.00  0.00    +0.000 F 
ATOM     30  F3  UNL     1      13.859  52.930  60.053  0.00  0.00    +0.000 F 
ENDBRANCH  24  27
ENDBRANCH  21  24
ENDBRANCH  20  21
ENDBRANCH   4  19
TORSDOF 7
ENDMDL
