MODEL 1
REMARK VINA RESULT:    -6.463      0.000      0.000
REMARK INTER + INTRA:         -11.501
REMARK INTER:                  -9.107
REMARK INTRA:                  -2.394
REMARK UNBOUND:                -2.394
REMARK  Name = teste_validacao_ia\MutanteIA_Top1.pdb
REMARK  10 active torsions:
REMARK  status: ('A' for Active; 'I' for Inactive)
REMARK    1  A    between atoms: C1_1  and  C2_2
REMARK    2  A    between atoms: C4_4  and  C5_5
REMARK    3  A    between atoms: C6_6  and  C7_7
REMARK    4  A    between atoms: C7_7  and  C8_10
REMARK    5  A    between atoms: C8_10  and  C9_13
REMARK    6  A    between atoms: C10_17  and  C11_18
REMARK    7  A    between atoms: C15_23  and  C16_24
REMARK    8  A    between atoms: C16_24  and  C17_26
REMARK    9  A    between atoms: C17_26  and  C18_27
REMARK   10  A    between atoms: C17_26  and  C19_28
REMARK                            x       y       z     vdW  Elec       q    Type
REMARK                         _______ _______ _______ _____ _____    ______ ____
ROOT
ATOM      1  C1  UNL     1       2.915  -2.527  14.097  0.00  0.00    +0.000 C 
ATOM      2  C2  UNL     1       2.407  -2.265  15.482  0.00  0.00    +0.000 C 
ATOM      3  C3  UNL     1       1.293  -1.462  15.682  0.00  0.00    +0.000 C 
ATOM      4  C4  UNL     1       0.829  -1.226  16.985  0.00  0.00    +0.000 C 
ATOM      5  C10 UNL     1       1.495  -1.812  18.074  0.00  0.00    +0.000 C 
ATOM      6  C20 UNL     1       2.615  -2.587  17.755  0.00  0.00    +0.000 C 
ATOM      7  N1  UNL     1       3.078  -2.824  16.507  0.00  0.00    +0.000 NA
ENDROOT
BRANCH   5   8
ATOM      8  C11 UNL     1       1.128  -1.667  19.540  0.00  0.00    +0.000 C 
ATOM      9  C12 UNL     1       1.466  -2.911  20.395  0.00  0.00    +0.000 C 
ATOM     10  C13 UNL     1       2.341  -2.412  21.538  0.00  0.00    +0.000 C 
ATOM     11  C14 UNL     1       1.941  -0.958  21.705  0.00  0.00    +0.000 C 
ATOM     12  F4  UNL     1       2.931  -0.276  22.325  0.00  0.00    +0.000 F 
ATOM     13  C15 UNL     1       1.760  -0.473  20.278  0.00  0.00    +0.000 C 
BRANCH  13  14
ATOM     14  C16 UNL     1       1.061   0.877  20.148  0.00  0.00    +0.000 C 
ATOM     15  O1  UNL     1       0.025   1.062  20.804  0.00  0.00    +0.000 OA
BRANCH  14  16
ATOM     16  C17 UNL     1       1.598   2.048  19.320  0.00  0.00    +0.000 C 
ATOM     17  C18 UNL     1       2.703   1.583  18.375  0.00  0.00    +0.000 C 
ATOM     18  C19 UNL     1       0.590   2.930  18.604  0.00  0.00    +0.000 C 
ENDBRANCH  14  16
ENDBRANCH  13  14
ENDBRANCH   5   8
BRANCH   4  19
ATOM     19  C5  UNL     1      -0.336  -0.339  17.109  0.00  0.00    +0.000 C 
ATOM     20  C6  UNL     1      -1.516  -0.796  17.567  0.00  0.00    +0.000 C 
BRANCH  20  21
ATOM     21  C7  UNL     1      -2.855  -0.056  17.719  0.00  0.00    +0.000 C 
ATOM     22 CL1  UNL     1      -4.107  -0.838  16.659  0.00  0.00    +0.000 Cl
ATOM     23 CL2  UNL     1      -2.564   1.576  16.968  0.00  0.00    +0.000 Cl
BRANCH  21  24
ATOM     24  C8  UNL     1      -3.329   0.051  19.204  0.00  0.00    +0.000 C 
ATOM     25 CL3  UNL     1      -2.896   1.687  19.923  0.00  0.00    +0.000 Cl
ATOM     26 CL4  UNL     1      -2.414  -1.158  20.249  0.00  0.00    +0.000 Cl
BRANCH  24  27
ATOM     27  C9  UNL     1      -4.832  -0.179  19.392  0.00  0.00    +0.000 C 
ATOM     28  F1  UNL     1      -5.200  -1.463  19.178  0.00  0.00    +0.000 F 
ATOM     29  F2  UNL     1      -5.590   0.590  18.579  0.00  0.00    +0.000 F 
ATOM     30  F3  UNL     1      -5.222   0.113  20.661  0.00  0.00    +0.000 F 
ENDBRANCH  24  27
ENDBRANCH  21  24
ENDBRANCH  20  21
ENDBRANCH   4  19
TORSDOF 7
ENDMDL
MODEL 2
REMARK VINA RESULT:    -6.443      3.863      5.333
REMARK INTER + INTRA:         -11.474
REMARK INTER:                  -9.601
REMARK INTRA:                  -1.873
REMARK UNBOUND:                -2.394
REMARK  Name = teste_validacao_ia\MutanteIA_Top1.pdb
REMARK  10 active torsions:
REMARK  status: ('A' for Active; 'I' for Inactive)
REMARK    1  A    between atoms: C1_1  and  C2_2
REMARK    2  A    between atoms: C4_4  and  C5_5
REMARK    3  A    between atoms: C6_6  and  C7_7
REMARK    4  A    between atoms: C7_7  and  C8_10
REMARK    5  A    between atoms: C8_10  and  C9_13
REMARK    6  A    between atoms: C10_17  and  C11_18
REMARK    7  A    between atoms: C15_23  and  C16_24
REMARK    8  A    between atoms: C16_24  and  C17_26
REMARK    9  A    between atoms: C17_26  and  C18_27
REMARK   10  A    between atoms: C17_26  and  C19_28
REMARK                            x       y       z     vdW  Elec       q    Type
REMARK                         _______ _______ _______ _____ _____    ______ ____
ROOT
ATOM      1  C1  UNL     1      -1.464   2.978  16.610  0.00  0.00    +0.000 C 
ATOM      2  C2  UNL     1      -1.002   2.114  17.744  0.00  0.00    +0.000 C 
ATOM      3  C3  UNL     1      -0.230   0.987  17.499  0.00  0.00    +0.000 C 
ATOM      4  C4  UNL     1       0.195   0.187  18.570  0.00  0.00    +0.000 C 
ATOM      5  C10 UNL     1      -0.161   0.542  19.883  0.00  0.00    +0.000 C 
ATOM      6  C20 UNL     1      -0.954   1.687  20.008  0.00  0.00    +0.000 C 
ATOM      7  N1  UNL     1      -1.374   2.468  18.988  0.00  0.00    +0.000 NA
ENDROOT
BRANCH   5   8
ATOM      8  C11 UNL     1       0.215  -0.202  21.152  0.00  0.00    +0.000 C 
ATOM      9  C12 UNL     1      -0.428  -1.604  21.268  0.00  0.00    +0.000 C 
ATOM     10  C13 UNL     1       0.722  -2.579  21.479  0.00  0.00    +0.000 C 
ATOM     11  C14 UNL     1       1.809  -1.740  22.125  0.00  0.00    +0.000 C 
ATOM     12  F4  UNL     1       3.015  -2.320  21.934  0.00  0.00    +0.000 F 
ATOM     13  C15 UNL     1       1.721  -0.416  21.386  0.00  0.00    +0.000 C 
BRANCH  13  14
ATOM     14  C16 UNL     1       2.496   0.727  22.033  0.00  0.00    +0.000 C 
ATOM     15  O1  UNL     1       2.315   0.943  23.241  0.00  0.00    +0.000 OA
BRANCH  14  16
ATOM     16  C17 UNL     1       3.545   1.576  21.308  0.00  0.00    +0.000 C 
ATOM     17  C18 UNL     1       3.121   1.845  19.866  0.00  0.00    +0.000 C 
ATOM     18  C19 UNL     1       4.024   2.845  21.992  0.00  0.00    +0.000 C 
ENDBRANCH  14  16
ENDBRANCH  13  14
ENDBRANCH   5   8
BRANCH   4  19
ATOM     19  C5  UNL     1       0.980  -1.005  18.220  0.00  0.00    +0.000 C 
ATOM     20  C6  UNL     1       0.921  -1.543  16.988  0.00  0.00    +0.000 C 
BRANCH  20  21
ATOM     21  C7  UNL     1       1.610  -2.803  16.442  0.00  0.00    +0.000 C 
ATOM     22 CL1  UNL     1       3.394  -2.714  16.771  0.00  0.00    +0.000 Cl
ATOM     23 CL2  UNL     1       1.463  -2.659  14.633  0.00  0.00    +0.000 Cl
BRANCH  21  24
ATOM     24  C8  UNL     1       0.979  -4.127  16.983  0.00  0.00    +0.000 C 
ATOM     25 CL3  UNL     1       1.034  -5.456  15.714  0.00  0.00    +0.000 Cl
ATOM     26 CL4  UNL     1      -0.816  -3.886  17.308  0.00  0.00    +0.000 Cl
BRANCH  24  27
ATOM     27  C9  UNL     1       1.642  -4.649  18.261  0.00  0.00    +0.000 C 
ATOM     28  F1  UNL     1       2.565  -5.608  18.024  0.00  0.00    +0.000 F 
ATOM     29  F2  UNL     1       0.757  -5.163  19.144  0.00  0.00    +0.000 F 
ATOM     30  F3  UNL     1       2.298  -3.656  18.919  0.00  0.00    +0.000 F 
ENDBRANCH  24  27
ENDBRANCH  21  24
ENDBRANCH  20  21
ENDBRANCH   4  19
TORSDOF 7
ENDMDL
MODEL 3
REMARK VINA RESULT:    -6.393      3.818      6.181
REMARK INTER + INTRA:         -11.403
REMARK INTER:                  -9.198
REMARK INTRA:                  -2.205
REMARK UNBOUND:                -2.394
REMARK  Name = teste_validacao_ia\MutanteIA_Top1.pdb
REMARK  10 active torsions:
REMARK  status: ('A' for Active; 'I' for Inactive)
REMARK    1  A    between atoms: C1_1  and  C2_2
REMARK    2  A    between atoms: C4_4  and  C5_5
REMARK    3  A    between atoms: C6_6  and  C7_7
REMARK    4  A    between atoms: C7_7  and  C8_10
REMARK    5  A    between atoms: C8_10  and  C9_13
REMARK    6  A    between atoms: C10_17  and  C11_18
REMARK    7  A    between atoms: C15_23  and  C16_24
REMARK    8  A    between atoms: C16_24  and  C17_26
REMARK    9  A    between atoms: C17_26  and  C18_27
REMARK   10  A    between atoms: C17_26  and  C19_28
REMARK                            x       y       z     vdW  Elec       q    Type
REMARK                         _______ _______ _______ _____ _____    ______ ____
ROOT
ATOM      1  C1  UNL     1      -4.295   4.092  21.096  0.00  0.00    +0.000 C 
ATOM      2  C2  UNL     1      -2.817   4.123  20.853  0.00  0.00    +0.000 C 
ATOM      3  C3  UNL     1      -2.184   3.053  20.235  0.00  0.00    +0.000 C 
ATOM      4  C4  UNL     1      -0.799   3.096  20.014  0.00  0.00    +0.000 C 
ATOM      5  C10 UNL     1      -0.069   4.228  20.416  0.00  0.00    +0.000 C 
ATOM      6  C20 UNL     1      -0.808   5.236  21.043  0.00  0.00    +0.000 C 
ATOM      7  N1  UNL     1      -2.141   5.211  21.266  0.00  0.00    +0.000 NA
ENDROOT
BRANCH   5   8
ATOM      8  C11 UNL     1       1.425   4.442  20.251  0.00  0.00    +0.000 C 
ATOM      9  C12 UNL     1       1.789   5.632  19.333  0.00  0.00    +0.000 C 
ATOM     10  C13 UNL     1       2.705   6.532  20.152  0.00  0.00    +0.000 C 
ATOM     11  C14 UNL     1       3.353   5.592  21.152  0.00  0.00    +0.000 C 
ATOM     12  F4  UNL     1       3.802   6.292  22.219  0.00  0.00    +0.000 F 
ATOM     13  C15 UNL     1       2.222   4.661  21.550  0.00  0.00    +0.000 C 
BRANCH  13  14
ATOM     14  C16 UNL     1       2.660   3.419  22.319  0.00  0.00    +0.000 C 
ATOM     15  O1  UNL     1       2.945   3.548  23.519  0.00  0.00    +0.000 OA
BRANCH  14  16
ATOM     16  C17 UNL     1       2.695   2.007  21.727  0.00  0.00    +0.000 C 
ATOM     17  C18 UNL     1       3.850   1.862  20.739  0.00  0.00    +0.000 C 
ATOM     18  C19 UNL     1       2.638   0.835  22.690  0.00  0.00    +0.000 C 
ENDBRANCH  14  16
ENDBRANCH  13  14
ENDBRANCH   5   8
BRANCH   4  19
ATOM     19  C5  UNL     1      -0.204   1.909  19.384  0.00  0.00    +0.000 C 
ATOM     20  C6  UNL     1      -0.620   0.669  19.700  0.00  0.00    +0.000 C 
BRANCH  20  21
ATOM     21  C7  UNL     1      -0.098  -0.689  19.204  0.00  0.00    +0.000 C 
ATOM     22 CL1  UNL     1       1.194  -1.293  20.329  0.00  0.00    +0.000 Cl
ATOM     23 CL2  UNL     1       0.777  -0.306  17.654  0.00  0.00    +0.000 Cl
BRANCH  21  24
ATOM     24  C8  UNL     1      -1.234  -1.742  18.997  0.00  0.00    +0.000 C 
ATOM     25 CL3  UNL     1      -0.544  -3.437  18.824  0.00  0.00    +0.000 Cl
ATOM     26 CL4  UNL     1      -2.094  -1.438  17.398  0.00  0.00    +0.000 Cl
BRANCH  24  27
ATOM     27  C9  UNL     1      -2.277  -1.754  20.119  0.00  0.00    +0.000 C 
ATOM     28  F1  UNL     1      -3.050  -0.645  20.133  0.00  0.00    +0.000 F 
ATOM     29  F2  UNL     1      -1.729  -1.871  21.348  0.00  0.00    +0.000 F 
ATOM     30  F3  UNL     1      -3.134  -2.802  19.986  0.00  0.00    +0.000 F 
ENDBRANCH  24  27
ENDBRANCH  21  24
ENDBRANCH  20  21
ENDBRANCH   4  19
TORSDOF 7
ENDMDL
MODEL 4
REMARK VINA RESULT:    -6.353     22.734     25.543
REMARK INTER + INTRA:         -11.346
REMARK INTER:                  -9.350
REMARK INTRA:                  -1.996
REMARK UNBOUND:                -2.394
REMARK  Name = teste_validacao_ia\MutanteIA_Top1.pdb
REMARK  10 active torsions:
REMARK  status: ('A' for Active; 'I' for Inactive)
REMARK    1  A    between atoms: C1_1  and  C2_2
REMARK    2  A    between atoms: C4_4  and  C5_5
REMARK    3  A    between atoms: C6_6  and  C7_7
REMARK    4  A    between atoms: C7_7  and  C8_10
REMARK    5  A    between atoms: C8_10  and  C9_13
REMARK    6  A    between atoms: C10_17  and  C11_18
REMARK    7  A    between atoms: C15_23  and  C16_24
REMARK    8  A    between atoms: C16_24  and  C17_26
REMARK    9  A    between atoms: C17_26  and  C18_27
REMARK   10  A    between atoms: C17_26  and  C19_28
REMARK                            x       y       z     vdW  Elec       q    Type
REMARK                         _______ _______ _______ _____ _____    ______ ____
ROOT
ATOM      1  C1  UNL     1      18.001  -8.559  -4.229  0.00  0.00    +0.000 C 
ATOM      2  C2  UNL     1      17.731  -8.474  -2.758  0.00  0.00    +0.000 C 
ATOM      3  C3  UNL     1      17.597  -7.239  -2.138  0.00  0.00    +0.000 C 
ATOM      4  C4  UNL     1      17.344  -7.176  -0.760  0.00  0.00    +0.000 C 
ATOM      5  C10 UNL     1      17.223  -8.366  -0.022  0.00  0.00    +0.000 C 
ATOM      6  C20 UNL     1      17.393  -9.549  -0.748  0.00  0.00    +0.000 C 
ATOM      7  N1  UNL     1      17.639  -9.630  -2.074  0.00  0.00    +0.000 NA
ENDROOT
BRANCH   5   8
ATOM      8  C11 UNL     1      16.948  -8.480   1.466  0.00  0.00    +0.000 C 
ATOM      9  C12 UNL     1      15.457  -8.705   1.812  0.00  0.00    +0.000 C 
ATOM     10  C13 UNL     1      15.407  -9.967   2.663  0.00  0.00    +0.000 C 
ATOM     11  C14 UNL     1      16.776 -10.029   3.316  0.00  0.00    +0.000 C 
ATOM     12  F4  UNL     1      17.046 -11.297   3.701  0.00  0.00    +0.000 F 
ATOM     13  C15 UNL     1      17.717  -9.586   2.211  0.00  0.00    +0.000 C 
BRANCH  13  14
ATOM     14  C16 UNL     1      19.134  -9.261   2.673  0.00  0.00    +0.000 C 
ATOM     15  O1  UNL     1      19.941 -10.196   2.778  0.00  0.00    +0.000 OA
BRANCH  14  16
ATOM     16  C17 UNL     1      19.648  -7.844   2.942  0.00  0.00    +0.000 C 
ATOM     17  C18 UNL     1      20.604  -7.830   4.132  0.00  0.00    +0.000 C 
ATOM     18  C19 UNL     1      20.211  -7.061   1.769  0.00  0.00    +0.000 C 
ENDBRANCH  14  16
ENDBRANCH  13  14
ENDBRANCH   5   8
BRANCH   4  19
ATOM     19  C5  UNL     1      17.249  -5.829  -0.178  0.00  0.00    +0.000 C 
ATOM     20  C6  UNL     1      16.079  -5.349   0.284  0.00  0.00    +0.000 C 
BRANCH  20  21
ATOM     21  C7  UNL     1      15.758  -3.966   0.870  0.00  0.00    +0.000 C 
ATOM     22 CL1  UNL     1      16.219  -2.676  -0.323  0.00  0.00    +0.000 Cl
ATOM     23 CL2  UNL     1      16.933  -3.766   2.246  0.00  0.00    +0.000 Cl
BRANCH  21  24
ATOM     24  C8  UNL     1      14.273  -3.829   1.336  0.00  0.00    +0.000 C 
ATOM     25 CL3  UNL     1      13.971  -4.778   2.881  0.00  0.00    +0.000 Cl
ATOM     26 CL4  UNL     1      13.149  -4.606   0.102  0.00  0.00    +0.000 Cl
BRANCH  24  27
ATOM     27  C9  UNL     1      13.826  -2.381   1.561  0.00  0.00    +0.000 C 
ATOM     28  F1  UNL     1      13.381  -1.785   0.432  0.00  0.00    +0.000 F 
ATOM     29  F2  UNL     1      14.806  -1.598   2.062  0.00  0.00    +0.000 F 
ATOM     30  F3  UNL     1      12.797  -2.313   2.447  0.00  0.00    +0.000 F 
ENDBRANCH  24  27
ENDBRANCH  21  24
ENDBRANCH  20  21
ENDBRANCH   4  19
TORSDOF 7
ENDMDL
MODEL 5
REMARK VINA RESULT:    -6.352      4.003      5.620
REMARK INTER + INTRA:         -11.345
REMARK INTER:                  -9.396
REMARK INTRA:                  -1.949
REMARK UNBOUND:                -2.394
REMARK  Name = teste_validacao_ia\MutanteIA_Top1.pdb
REMARK  10 active torsions:
REMARK  status: ('A' for Active; 'I' for Inactive)
REMARK    1  A    between atoms: C1_1  and  C2_2
REMARK    2  A    between atoms: C4_4  and  C5_5
REMARK    3  A    between atoms: C6_6  and  C7_7
REMARK    4  A    between atoms: C7_7  and  C8_10
REMARK    5  A    between atoms: C8_10  and  C9_13
REMARK    6  A    between atoms: C10_17  and  C11_18
REMARK    7  A    between atoms: C15_23  and  C16_24
REMARK    8  A    between atoms: C16_24  and  C17_26
REMARK    9  A    between atoms: C17_26  and  C18_27
REMARK   10  A    between atoms: C17_26  and  C19_28
REMARK                            x       y       z     vdW  Elec       q    Type
REMARK                         _______ _______ _______ _____ _____    ______ ____
ROOT
ATOM      1  C1  UNL     1      -1.518   3.257  16.337  0.00  0.00    +0.000 C 
ATOM      2  C2  UNL     1      -1.163   2.375  17.494  0.00  0.00    +0.000 C 
ATOM      3  C3  UNL     1      -0.921   1.022  17.298  0.00  0.00    +0.000 C 
ATOM      4  C4  UNL     1      -0.589   0.208  18.391  0.00  0.00    +0.000 C 
ATOM      5  C10 UNL     1      -0.501   0.774  19.674  0.00  0.00    +0.000 C 
ATOM      6  C20 UNL     1      -0.783   2.141  19.755  0.00  0.00    +0.000 C 
ATOM      7  N1  UNL     1      -1.105   2.941  18.714  0.00  0.00    +0.000 NA
ENDROOT
BRANCH   5   8
ATOM      8  C11 UNL     1      -0.152   0.045  20.960  0.00  0.00    +0.000 C 
ATOM      9  C12 UNL     1      -0.931  -1.276  21.161  0.00  0.00    +0.000 C 
ATOM     10  C13 UNL     1       0.120  -2.357  21.371  0.00  0.00    +0.000 C 
ATOM     11  C14 UNL     1       1.313  -1.612  21.940  0.00  0.00    +0.000 C 
ATOM     12  F4  UNL     1       2.444  -2.323  21.731  0.00  0.00    +0.000 F 
ATOM     13  C15 UNL     1       1.332  -0.316  21.148  0.00  0.00    +0.000 C 
BRANCH  13  14
ATOM     14  C16 UNL     1       2.247   0.764  21.716  0.00  0.00    +0.000 C 
ATOM     15  O1  UNL     1       2.649   0.632  22.882  0.00  0.00    +0.000 OA
BRANCH  14  16
ATOM     16  C17 UNL     1       2.767   1.961  20.915  0.00  0.00    +0.000 C 
ATOM     17  C18 UNL     1       3.981   2.584  21.598  0.00  0.00    +0.000 C 
ATOM     18  C19 UNL     1       3.006   1.767  19.427  0.00  0.00    +0.000 C 
ENDBRANCH  14  16
ENDBRANCH  13  14
ENDBRANCH   5   8
BRANCH   4  19
ATOM     19  C5  UNL     1      -0.380  -1.217  18.100  0.00  0.00    +0.000 C 
ATOM     20  C6  UNL     1       0.849  -1.707  17.854  0.00  0.00    +0.000 C 
BRANCH  20  21
ATOM     21  C7  UNL     1       1.271  -3.136  17.478  0.00  0.00    +0.000 C 
ATOM     22 CL1  UNL     1      -0.116  -4.275  17.760  0.00  0.00    +0.000 Cl
ATOM     23 CL2  UNL     1       2.510  -3.593  18.732  0.00  0.00    +0.000 Cl
BRANCH  21  24
ATOM     24  C8  UNL     1       1.833  -3.245  16.024  0.00  0.00    +0.000 C 
ATOM     25 CL3  UNL     1       0.535  -2.863  14.780  0.00  0.00    +0.000 Cl
ATOM     26 CL4  UNL     1       2.309  -4.986  15.660  0.00  0.00    +0.000 Cl
BRANCH  24  27
ATOM     27  C9  UNL     1       3.041  -2.342  15.759  0.00  0.00    +0.000 C 
ATOM     28  F1  UNL     1       2.759  -1.027  15.900  0.00  0.00    +0.000 F 
ATOM     29  F2  UNL     1       3.561  -2.503  14.522  0.00  0.00    +0.000 F 
ATOM     30  F3  UNL     1       4.052  -2.600  16.631  0.00  0.00    +0.000 F 
ENDBRANCH  24  27
ENDBRANCH  21  24
ENDBRANCH  20  21
ENDBRANCH   4  19
TORSDOF 7
ENDMDL
MODEL 6
REMARK VINA RESULT:    -6.281      3.788      5.341
REMARK INTER + INTRA:         -11.246
REMARK INTER:                  -9.058
REMARK INTRA:                  -2.188
REMARK UNBOUND:                -2.394
REMARK  Name = teste_validacao_ia\MutanteIA_Top1.pdb
REMARK  10 active torsions:
REMARK  status: ('A' for Active; 'I' for Inactive)
REMARK    1  A    between atoms: C1_1  and  C2_2
REMARK    2  A    between atoms: C4_4  and  C5_5
REMARK    3  A    between atoms: C6_6  and  C7_7
REMARK    4  A    between atoms: C7_7  and  C8_10
REMARK    5  A    between atoms: C8_10  and  C9_13
REMARK    6  A    between atoms: C10_17  and  C11_18
REMARK    7  A    between atoms: C15_23  and  C16_24
REMARK    8  A    between atoms: C16_24  and  C17_26
REMARK    9  A    between atoms: C17_26  and  C18_27
REMARK   10  A    between atoms: C17_26  and  C19_28
REMARK                            x       y       z     vdW  Elec       q    Type
REMARK                         _______ _______ _______ _____ _____    ______ ____
ROOT
ATOM      1  C1  UNL     1      -1.575   3.221  16.191  0.00  0.00    +0.000 C 
ATOM      2  C2  UNL     1      -0.531   2.579  17.052  0.00  0.00    +0.000 C 
ATOM      3  C3  UNL     1       0.150   1.453  16.609  0.00  0.00    +0.000 C 
ATOM      4  C4  UNL     1       1.125   0.863  17.427  0.00  0.00    +0.000 C 
ATOM      5  C10 UNL     1       1.406   1.423  18.685  0.00  0.00    +0.000 C 
ATOM      6  C20 UNL     1       0.647   2.545  19.033  0.00  0.00    +0.000 C 
ATOM      7  N1  UNL     1      -0.297   3.126  18.260  0.00  0.00    +0.000 NA
ENDROOT
BRANCH   5   8
ATOM      8  C11 UNL     1       2.427   0.919  19.690  0.00  0.00    +0.000 C 
ATOM      9  C12 UNL     1       3.490   1.971  20.084  0.00  0.00    +0.000 C 
ATOM     10  C13 UNL     1       3.441   2.071  21.602  0.00  0.00    +0.000 C 
ATOM     11  C14 UNL     1       2.923   0.716  22.048  0.00  0.00    +0.000 C 
ATOM     12  F4  UNL     1       2.384   0.813  23.285  0.00  0.00    +0.000 F 
ATOM     13  C15 UNL     1       1.859   0.386  21.017  0.00  0.00    +0.000 C 
BRANCH  13  14
ATOM     14  C16 UNL     1       1.377  -1.061  21.040  0.00  0.00    +0.000 C 
ATOM     15  O1  UNL     1       2.208  -1.955  20.819  0.00  0.00    +0.000 OA
BRANCH  14  16
ATOM     16  C17 UNL     1      -0.049  -1.488  21.397  0.00  0.00    +0.000 C 
ATOM     17  C18 UNL     1      -1.071  -0.700  20.581  0.00  0.00    +0.000 C 
ATOM     18  C19 UNL     1      -0.364  -2.974  21.394  0.00  0.00    +0.000 C 
ENDBRANCH  14  16
ENDBRANCH  13  14
ENDBRANCH   5   8
BRANCH   4  19
ATOM     19  C5  UNL     1       1.775  -0.344  16.897  0.00  0.00    +0.000 C 
ATOM     20  C6  UNL     1       1.072  -1.280  16.232  0.00  0.00    +0.000 C 
BRANCH  20  21
ATOM     21  C7  UNL     1       1.544  -2.623  15.653  0.00  0.00    +0.000 C 
ATOM     22 CL1  UNL     1       3.130  -2.394  14.797  0.00  0.00    +0.000 Cl
ATOM     23 CL2  UNL     1       0.352  -2.997  14.330  0.00  0.00    +0.000 Cl
BRANCH  21  24
ATOM     24  C8  UNL     1       1.616  -3.759  16.724  0.00  0.00    +0.000 C 
ATOM     25 CL3  UNL     1       3.087  -3.560  17.807  0.00  0.00    +0.000 Cl
ATOM     26 CL4  UNL     1       1.876  -5.386  15.903  0.00  0.00    +0.000 Cl
BRANCH  24  27
ATOM     27  C9  UNL     1       0.369  -3.853  17.610  0.00  0.00    +0.000 C 
ATOM     28  F1  UNL     1       0.504  -4.743  18.619  0.00  0.00    +0.000 F 
ATOM     29  F2  UNL     1      -0.742  -4.198  16.924  0.00  0.00    +0.000 F 
ATOM     30  F3  UNL     1       0.093  -2.660  18.201  0.00  0.00    +0.000 F 
ENDBRANCH  24  27
ENDBRANCH  21  24
ENDBRANCH  20  21
ENDBRANCH   4  19
TORSDOF 7
ENDMDL
MODEL 7
REMARK VINA RESULT:    -6.048     20.135     23.583
REMARK INTER + INTRA:         -10.917
REMARK INTER:                  -8.490
REMARK INTRA:                  -2.427
REMARK UNBOUND:                -2.394
REMARK  Name = teste_validacao_ia\MutanteIA_Top1.pdb
REMARK  10 active torsions:
REMARK  status: ('A' for Active; 'I' for Inactive)
REMARK    1  A    between atoms: C1_1  and  C2_2
REMARK    2  A    between atoms: C4_4  and  C5_5
REMARK    3  A    between atoms: C6_6  and  C7_7
REMARK    4  A    between atoms: C7_7  and  C8_10
REMARK    5  A    between atoms: C8_10  and  C9_13
REMARK    6  A    between atoms: C10_17  and  C11_18
REMARK    7  A    between atoms: C15_23  and  C16_24
REMARK    8  A    between atoms: C16_24  and  C17_26
REMARK    9  A    between atoms: C17_26  and  C18_27
REMARK   10  A    between atoms: C17_26  and  C19_28
REMARK                            x       y       z     vdW  Elec       q    Type
REMARK                         _______ _______ _______ _____ _____    ______ ____
ROOT
ATOM      1  C1  UNL     1      15.654   2.130  -2.658  0.00  0.00    +0.000 C 
ATOM      2  C2  UNL     1      14.883   1.731  -1.437  0.00  0.00    +0.000 C 
ATOM      3  C3  UNL     1      15.377   0.756  -0.582  0.00  0.00    +0.000 C 
ATOM      4  C4  UNL     1      14.643   0.393   0.558  0.00  0.00    +0.000 C 
ATOM      5  C10 UNL     1      13.418   1.028   0.824  0.00  0.00    +0.000 C 
ATOM      6  C20 UNL     1      13.012   1.982  -0.115  0.00  0.00    +0.000 C 
ATOM      7  N1  UNL     1      13.704   2.343  -1.219  0.00  0.00    +0.000 NA
ENDROOT
BRANCH   5   8
ATOM      8  C11 UNL     1      12.503   0.763   2.007  0.00  0.00    +0.000 C 
ATOM      9  C12 UNL     1      11.979   2.047   2.692  0.00  0.00    +0.000 C 
ATOM     10  C13 UNL     1      10.461   1.932   2.697  0.00  0.00    +0.000 C 
ATOM     11  C14 UNL     1      10.200   0.438   2.670  0.00  0.00    +0.000 C 
ATOM     12  F4  UNL     1       8.956   0.195   2.198  0.00  0.00    +0.000 F 
ATOM     13  C15 UNL     1      11.256  -0.090   1.715  0.00  0.00    +0.000 C 
BRANCH  13  14
ATOM     14  C16 UNL     1      11.427  -1.605   1.730  0.00  0.00    +0.000 C 
ATOM     15  O1  UNL     1      11.166  -2.211   2.780  0.00  0.00    +0.000 OA
BRANCH  14  16
ATOM     16  C17 UNL     1      11.826  -2.439   0.508  0.00  0.00    +0.000 C 
ATOM     17  C18 UNL     1      11.186  -3.824   0.565  0.00  0.00    +0.000 C 
ATOM     18  C19 UNL     1      11.663  -1.807  -0.863  0.00  0.00    +0.000 C 
ENDBRANCH  14  16
ENDBRANCH  13  14
ENDBRANCH   5   8
BRANCH   4  19
ATOM     19  C5  UNL     1      15.221  -0.670   1.391  0.00  0.00    +0.000 C 
ATOM     20  C6  UNL     1      15.129  -1.965   1.035  0.00  0.00    +0.000 C 
BRANCH  20  21
ATOM     21  C7  UNL     1      15.610  -3.218   1.783  0.00  0.00    +0.000 C 
ATOM     22 CL1  UNL     1      14.268  -3.856   2.829  0.00  0.00    +0.000 Cl
ATOM     23 CL2  UNL     1      16.859  -2.601   2.955  0.00  0.00    +0.000 Cl
BRANCH  21  24
ATOM     24  C8  UNL     1      16.184  -4.317   0.831  0.00  0.00    +0.000 C 
ATOM     25 CL3  UNL     1      17.014  -3.565  -0.627  0.00  0.00    +0.000 Cl
ATOM     26 CL4  UNL     1      14.810  -5.306   0.107  0.00  0.00    +0.000 Cl
BRANCH  24  27
ATOM     27  C9  UNL     1      17.169  -5.272   1.512  0.00  0.00    +0.000 C 
ATOM     28  F1  UNL     1      18.303  -4.659   1.919  0.00  0.00    +0.000 F 
ATOM     29  F2  UNL     1      17.538  -6.303   0.720  0.00  0.00    +0.000 F 
ATOM     30  F3  UNL     1      16.626  -5.828   2.628  0.00  0.00    +0.000 F 
ENDBRANCH  24  27
ENDBRANCH  21  24
ENDBRANCH  20  21
ENDBRANCH   4  19
TORSDOF 7
ENDMDL
MODEL 8
REMARK VINA RESULT:    -5.990      3.965      5.548
REMARK INTER + INTRA:         -10.835
REMARK INTER:                  -8.363
REMARK INTRA:                  -2.471
REMARK UNBOUND:                -2.394
REMARK  Name = teste_validacao_ia\MutanteIA_Top1.pdb
REMARK  10 active torsions:
REMARK  status: ('A' for Active; 'I' for Inactive)
REMARK    1  A    between atoms: C1_1  and  C2_2
REMARK    2  A    between atoms: C4_4  and  C5_5
REMARK    3  A    between atoms: C6_6  and  C7_7
REMARK    4  A    between atoms: C7_7  and  C8_10
REMARK    5  A    between atoms: C8_10  and  C9_13
REMARK    6  A    between atoms: C10_17  and  C11_18
REMARK    7  A    between atoms: C15_23  and  C16_24
REMARK    8  A    between atoms: C16_24  and  C17_26
REMARK    9  A    between atoms: C17_26  and  C18_27
REMARK   10  A    between atoms: C17_26  and  C19_28
REMARK                            x       y       z     vdW  Elec       q    Type
REMARK                         _______ _______ _______ _____ _____    ______ ____
ROOT
ATOM      1  C1  UNL     1      -4.863   0.803  17.165  0.00  0.00    +0.000 C 
ATOM      2  C2  UNL     1      -3.829   0.254  18.100  0.00  0.00    +0.000 C 
ATOM      3  C3  UNL     1      -3.103  -0.878  17.758  0.00  0.00    +0.000 C 
ATOM      4  C4  UNL     1      -2.137  -1.380  18.643  0.00  0.00    +0.000 C 
ATOM      5  C10 UNL     1      -1.912  -0.725  19.866  0.00  0.00    +0.000 C 
ATOM      6  C20 UNL     1      -2.714   0.394  20.112  0.00  0.00    +0.000 C 
ATOM      7  N1  UNL     1      -3.649   0.891  19.272  0.00  0.00    +0.000 NA
ENDROOT
BRANCH   5   8
ATOM      8  C11 UNL     1      -0.910  -1.127  20.933  0.00  0.00    +0.000 C 
ATOM      9  C12 UNL     1      -1.132  -2.550  21.496  0.00  0.00    +0.000 C 
ATOM     10  C13 UNL     1       0.188  -3.287  21.314  0.00  0.00    +0.000 C 
ATOM     11  C14 UNL     1       1.232  -2.185  21.314  0.00  0.00    +0.000 C 
ATOM     12  F4  UNL     1       2.357  -2.615  20.699  0.00  0.00    +0.000 F 
ATOM     13  C15 UNL     1       0.572  -1.071  20.521  0.00  0.00    +0.000 C 
BRANCH  13  14
ATOM     14  C16 UNL     1       1.273   0.280  20.617  0.00  0.00    +0.000 C 
ATOM     15  O1  UNL     1       2.027   0.478  21.582  0.00  0.00    +0.000 OA
BRANCH  14  16
ATOM     16  C17 UNL     1       1.168   1.381  19.558  0.00  0.00    +0.000 C 
ATOM     17  C18 UNL     1       0.872   0.786  18.184  0.00  0.00    +0.000 C 
ATOM     18  C19 UNL     1       0.266   2.566  19.856  0.00  0.00    +0.000 C 
ENDBRANCH  14  16
ENDBRANCH  13  14
ENDBRANCH   5   8
BRANCH   4  19
ATOM     19  C5  UNL     1      -1.437  -2.600  18.218  0.00  0.00    +0.000 C 
ATOM     20  C6  UNL     1      -0.660  -2.613  17.119  0.00  0.00    +0.000 C 
BRANCH  20  21
ATOM     21  C7  UNL     1       0.104  -3.783  16.480  0.00  0.00    +0.000 C 
ATOM     22 CL1  UNL     1      -0.045  -3.692  14.672  0.00  0.00    +0.000 Cl
ATOM     23 CL2  UNL     1      -0.845  -5.263  16.951  0.00  0.00    +0.000 Cl
BRANCH  21  24
ATOM     24  C8  UNL     1       1.595  -3.864  16.942  0.00  0.00    +0.000 C 
ATOM     25 CL3  UNL     1       2.187  -2.239  17.564  0.00  0.00    +0.000 Cl
ATOM     26 CL4  UNL     1       2.684  -4.220  15.500  0.00  0.00    +0.000 Cl
BRANCH  24  27
ATOM     27  C9  UNL     1       1.851  -4.921  18.021  0.00  0.00    +0.000 C 
ATOM     28  F1  UNL     1       0.886  -4.953  18.967  0.00  0.00    +0.000 F 
ATOM     29  F2  UNL     1       3.028  -4.748  18.661  0.00  0.00    +0.000 F 
ATOM     30  F3  UNL     1       1.891  -6.171  17.488  0.00  0.00    +0.000 F 
ENDBRANCH  24  27
ENDBRANCH  21  24
ENDBRANCH  20  21
ENDBRANCH   4  19
TORSDOF 7
ENDMDL
MODEL 9
REMARK VINA RESULT:    -5.927      4.060      5.900
REMARK INTER + INTRA:         -10.746
REMARK INTER:                  -8.602
REMARK INTRA:                  -2.144
REMARK UNBOUND:                -2.394
REMARK  Name = teste_validacao_ia\MutanteIA_Top1.pdb
REMARK  10 active torsions:
REMARK  status: ('A' for Active; 'I' for Inactive)
REMARK    1  A    between atoms: C1_1  and  C2_2
REMARK    2  A    between atoms: C4_4  and  C5_5
REMARK    3  A    between atoms: C6_6  and  C7_7
REMARK    4  A    between atoms: C7_7  and  C8_10
REMARK    5  A    between atoms: C8_10  and  C9_13
REMARK    6  A    between atoms: C10_17  and  C11_18
REMARK    7  A    between atoms: C15_23  and  C16_24
REMARK    8  A    between atoms: C16_24  and  C17_26
REMARK    9  A    between atoms: C17_26  and  C18_27
REMARK   10  A    between atoms: C17_26  and  C19_28
REMARK                            x       y       z     vdW  Elec       q    Type
REMARK                         _______ _______ _______ _____ _____    ______ ____
ROOT
ATOM      1  C1  UNL     1      -2.819   2.439  16.313  0.00  0.00    +0.000 C 
ATOM      2  C2  UNL     1      -1.589   1.995  17.045  0.00  0.00    +0.000 C 
ATOM      3  C3  UNL     1      -0.748   1.039  16.491  0.00  0.00    +0.000 C 
ATOM      4  C4  UNL     1       0.400   0.634  17.188  0.00  0.00    +0.000 C 
ATOM      5  C10 UNL     1       0.689   1.205  18.438  0.00  0.00    +0.000 C 
ATOM      6  C20 UNL     1      -0.237   2.144  18.905  0.00  0.00    +0.000 C 
ATOM      7  N1  UNL     1      -1.348   2.546  18.249  0.00  0.00    +0.000 NA
ENDROOT
BRANCH   5   8
ATOM      8  C11 UNL     1       1.883   0.888  19.321  0.00  0.00    +0.000 C 
ATOM      9  C12 UNL     1       3.013   1.941  19.247  0.00  0.00    +0.000 C 
ATOM     10  C13 UNL     1       3.266   2.389  20.681  0.00  0.00    +0.000 C 
ATOM     11  C14 UNL     1       2.834   1.203  21.523  0.00  0.00    +0.000 C 
ATOM     12  F4  UNL     1       2.551   1.609  22.781  0.00  0.00    +0.000 F 
ATOM     13  C15 UNL     1       1.583   0.705  20.820  0.00  0.00    +0.000 C 
BRANCH  13  14
ATOM     14  C16 UNL     1       1.102  -0.669  21.273  0.00  0.00    +0.000 C 
ATOM     15  O1  UNL     1      -0.010  -0.746  21.818  0.00  0.00    +0.000 OA
BRANCH  14  16
ATOM     16  C17 UNL     1       1.866  -1.973  21.030  0.00  0.00    +0.000 C 
ATOM     17  C18 UNL     1       2.486  -2.488  22.326  0.00  0.00    +0.000 C 
ATOM     18  C19 UNL     1       1.152  -3.082  20.277  0.00  0.00    +0.000 C 
ENDBRANCH  14  16
ENDBRANCH  13  14
ENDBRANCH   5   8
BRANCH   4  19
ATOM     19  C5  UNL     1       1.217  -0.405  16.545  0.00  0.00    +0.000 C 
ATOM     20  C6  UNL     1       0.969  -1.713  16.746  0.00  0.00    +0.000 C 
BRANCH  20  21
ATOM     21  C7  UNL     1       1.730  -2.940  16.220  0.00  0.00    +0.000 C 
ATOM     22 CL1  UNL     1       3.099  -3.338  17.346  0.00  0.00    +0.000 Cl
ATOM     23 CL2  UNL     1       2.537  -2.361  14.695  0.00  0.00    +0.000 Cl
BRANCH  21  24
ATOM     24  C8  UNL     1       0.802  -4.172  15.968  0.00  0.00    +0.000 C 
ATOM     25 CL3  UNL     1      -0.216  -3.938  14.455  0.00  0.00    +0.000 Cl
ATOM     26 CL4  UNL     1      -0.433  -4.321  17.325  0.00  0.00    +0.000 Cl
BRANCH  24  27
ATOM     27  C9  UNL     1       1.557  -5.499  15.845  0.00  0.00    +0.000 C 
ATOM     28  F1  UNL     1       0.826  -6.470  15.251  0.00  0.00    +0.000 F 
ATOM     29  F2  UNL     1       1.966  -5.987  17.037  0.00  0.00    +0.000 F 
ATOM     30  F3  UNL     1       2.678  -5.362  15.088  0.00  0.00    +0.000 F 
ENDBRANCH  24  27
ENDBRANCH  21  24
ENDBRANCH  20  21
ENDBRANCH   4  19
TORSDOF 7
ENDMDL
