MODEL 1
REMARK VINA RESULT:    -7.063      0.000      0.000
REMARK INTER + INTRA:         -11.321
REMARK INTER:                  -9.540
REMARK INTRA:                  -1.781
REMARK UNBOUND:                -1.781
REMARK  Name = teste_validacao_ia\MutanteIA_Top5.pdb
REMARK  9 active torsions:
REMARK  status: ('A' for Active; 'I' for Inactive)
REMARK    1  A    between atoms: C1_1  and  C2_2
REMARK    2  A    between atoms: C4_4  and  C5_5
REMARK    3  A    between atoms: C6_6  and  C7_7
REMARK    4  A    between atoms: C7_7  and  C8_10
REMARK    5  A    between atoms: C9_14  and  C10_15
REMARK    6  A    between atoms: C14_20  and  C15_21
REMARK    7  A    between atoms: C15_21  and  C16_23
REMARK    8  A    between atoms: C16_23  and  C17_24
REMARK    9  A    between atoms: C16_23  and  C18_25
REMARK                            x       y       z     vdW  Elec       q    Type
REMARK                         _______ _______ _______ _____ _____    ______ ____
ROOT
ATOM      1  C1  UNL     1      -2.789  61.399  74.056  0.00  0.00    +0.000 C 
ATOM      2  C2  UNL     1      -1.992  60.160  73.783  0.00  0.00    +0.000 C 
ATOM      3  C3  UNL     1      -0.877  60.208  72.960  0.00  0.00    +0.000 C 
ATOM      4  C4  UNL     1      -0.141  59.036  72.718  0.00  0.00    +0.000 C 
ATOM      5  C9  UNL     1      -0.555  57.816  73.288  0.00  0.00    +0.000 C 
ATOM      6  C19 UNL     1      -1.671  57.902  74.126  0.00  0.00    +0.000 C 
ATOM      7  N1  UNL     1      -2.387  59.022  74.383  0.00  0.00    +0.000 NA
ENDROOT
BRANCH   5   8
ATOM      8  C10 UNL     1       0.184  56.498  73.124  0.00  0.00    +0.000 C 
ATOM      9  C11 UNL     1      -0.558  55.194  73.516  0.00  0.00    +0.000 C 
ATOM     10  C12 UNL     1       0.521  54.157  73.848  0.00  0.00    +0.000 C 
ATOM     11  C13 UNL     1       1.836  54.846  73.534  0.00  0.00    +0.000 C 
ATOM     12  F4  UNL     1       2.839  54.357  74.290  0.00  0.00    +0.000 F 
ATOM     13  C14 UNL     1       1.567  56.320  73.806  0.00  0.00    +0.000 C 
BRANCH  13  14
ATOM     14  C15 UNL     1       1.590  56.560  75.318  0.00  0.00    +0.000 C 
ATOM     15  O1  UNL     1       0.983  55.829  76.100  0.00  0.00    +0.000 OA
BRANCH  14  16
ATOM     16  C16 UNL     1       2.384  57.766  75.816  0.00  0.00    +0.000 C 
ATOM     17  C17 UNL     1       3.399  58.181  74.759  0.00  0.00    +0.000 C 
ATOM     18  C18 UNL     1       1.436  58.913  76.156  0.00  0.00    +0.000 C 
ENDBRANCH  14  16
ENDBRANCH  13  14
ENDBRANCH   5   8
BRANCH   4  19
ATOM     19  C5  UNL     1       1.081  59.177  71.917  0.00  0.00    +0.000 C 
ATOM     20  C6  UNL     1       1.679  60.368  71.742  0.00  0.00    +0.000 C 
BRANCH  20  21
ATOM     21  C7  UNL     1       2.932  60.661  70.931  0.00  0.00    +0.000 C 
ATOM     22 CL1  UNL     1       2.983  62.459  70.704  0.00  0.00    +0.000 Cl
ATOM     23 CL2  UNL     1       2.666  59.928  69.294  0.00  0.00    +0.000 Cl
BRANCH  21  24
ATOM     24  C8  UNL     1       4.280  60.170  71.507  0.00  0.00    +0.000 C 
ATOM     25  F1  UNL     1       4.531  60.670  72.742  0.00  0.00    +0.000 F 
ATOM     26  F2  UNL     1       4.325  58.817  71.615  0.00  0.00    +0.000 F 
ATOM     27  F3  UNL     1       5.329  60.527  70.720  0.00  0.00    +0.000 F 
ENDBRANCH  21  24
ENDBRANCH  20  21
ENDBRANCH   4  19
TORSDOF 6
ENDMDL
MODEL 2
REMARK VINA RESULT:    -6.989     13.826     16.064
REMARK INTER + INTRA:         -11.221
REMARK INTER:                  -9.428
REMARK INTRA:                  -1.793
REMARK UNBOUND:                -1.781
REMARK  Name = teste_validacao_ia\MutanteIA_Top5.pdb
REMARK  9 active torsions:
REMARK  status: ('A' for Active; 'I' for Inactive)
REMARK    1  A    between atoms: C1_1  and  C2_2
REMARK    2  A    between atoms: C4_4  and  C5_5
REMARK    3  A    between atoms: C6_6  and  C7_7
REMARK    4  A    between atoms: C7_7  and  C8_10
REMARK    5  A    between atoms: C9_14  and  C10_15
REMARK    6  A    between atoms: C14_20  and  C15_21
REMARK    7  A    between atoms: C15_21  and  C16_23
REMARK    8  A    between atoms: C16_23  and  C17_24
REMARK    9  A    between atoms: C16_23  and  C18_25
REMARK                            x       y       z     vdW  Elec       q    Type
REMARK                         _______ _______ _______ _____ _____    ______ ____
ROOT
ATOM      1  C1  UNL     1       3.091  43.066  66.894  0.00  0.00    +0.000 C 
ATOM      2  C2  UNL     1       3.413  43.895  65.687  0.00  0.00    +0.000 C 
ATOM      3  C3  UNL     1       3.558  45.269  65.796  0.00  0.00    +0.000 C 
ATOM      4  C4  UNL     1       3.863  46.028  64.654  0.00  0.00    +0.000 C 
ATOM      5  C9  UNL     1       3.990  45.395  63.403  0.00  0.00    +0.000 C 
ATOM      6  C19 UNL     1       3.856  44.004  63.426  0.00  0.00    +0.000 C 
ATOM      7  N1  UNL     1       3.575  43.251  64.516  0.00  0.00    +0.000 NA
ENDROOT
BRANCH   5   8
ATOM      8  C10 UNL     1       4.352  46.110  62.111  0.00  0.00    +0.000 C 
ATOM      9  C11 UNL     1       4.055  45.389  60.771  0.00  0.00    +0.000 C 
ATOM     10  C12 UNL     1       5.017  45.976  59.732  0.00  0.00    +0.000 C 
ATOM     11  C13 UNL     1       5.753  47.084  60.464  0.00  0.00    +0.000 C 
ATOM     12  F4  UNL     1       6.980  47.285  59.943  0.00  0.00    +0.000 F 
ATOM     13  C14 UNL     1       5.806  46.614  61.911  0.00  0.00    +0.000 C 
BRANCH  13  14
ATOM     14  C15 UNL     1       6.896  45.547  62.049  0.00  0.00    +0.000 C 
ATOM     15  O1  UNL     1       6.914  44.543  61.339  0.00  0.00    +0.000 OA
BRANCH  14  16
ATOM     16  C16 UNL     1       7.952  45.771  63.130  0.00  0.00    +0.000 C 
ATOM     17  C17 UNL     1       8.209  47.264  63.291  0.00  0.00    +0.000 C 
ATOM     18  C18 UNL     1       7.500  45.140  64.443  0.00  0.00    +0.000 C 
ENDBRANCH  14  16
ENDBRANCH  13  14
ENDBRANCH   5   8
BRANCH   4  19
ATOM     19  C5  UNL     1       4.098  47.464  64.858  0.00  0.00    +0.000 C 
ATOM     20  C6  UNL     1       5.259  47.926  65.354  0.00  0.00    +0.000 C 
BRANCH  20  21
ATOM     21  C7  UNL     1       5.632  49.375  65.629  0.00  0.00    +0.000 C 
ATOM     22 CL1  UNL     1       5.467  50.252  64.051  0.00  0.00    +0.000 Cl
ATOM     23 CL2  UNL     1       7.394  49.379  66.056  0.00  0.00    +0.000 Cl
BRANCH  21  24
ATOM     24  C8  UNL     1       4.831  50.117  66.724  0.00  0.00    +0.000 C 
ATOM     25  F1  UNL     1       4.049  51.102  66.218  0.00  0.00    +0.000 F 
ATOM     26  F2  UNL     1       4.013  49.280  67.411  0.00  0.00    +0.000 F 
ATOM     27  F3  UNL     1       5.646  50.698  67.643  0.00  0.00    +0.000 F 
ENDBRANCH  21  24
ENDBRANCH  20  21
ENDBRANCH   4  19
TORSDOF 6
ENDMDL
MODEL 3
REMARK VINA RESULT:    -6.955     19.960     22.025
REMARK INTER + INTRA:         -11.176
REMARK INTER:                  -9.315
REMARK INTRA:                  -1.861
REMARK UNBOUND:                -1.781
REMARK  Name = teste_validacao_ia\MutanteIA_Top5.pdb
REMARK  9 active torsions:
REMARK  status: ('A' for Active; 'I' for Inactive)
REMARK    1  A    between atoms: C1_1  and  C2_2
REMARK    2  A    between atoms: C4_4  and  C5_5
REMARK    3  A    between atoms: C6_6  and  C7_7
REMARK    4  A    between atoms: C7_7  and  C8_10
REMARK    5  A    between atoms: C9_14  and  C10_15
REMARK    6  A    between atoms: C14_20  and  C15_21
REMARK    7  A    between atoms: C15_21  and  C16_23
REMARK    8  A    between atoms: C16_23  and  C17_24
REMARK    9  A    between atoms: C16_23  and  C18_25
REMARK                            x       y       z     vdW  Elec       q    Type
REMARK                         _______ _______ _______ _____ _____    ______ ____
ROOT
ATOM      1  C1  UNL     1      12.299  43.878  59.491  0.00  0.00    +0.000 C 
ATOM      2  C2  UNL     1      13.148  45.061  59.843  0.00  0.00    +0.000 C 
ATOM      3  C3  UNL     1      13.914  45.690  58.874  0.00  0.00    +0.000 C 
ATOM      4  C4  UNL     1      14.701  46.800  59.223  0.00  0.00    +0.000 C 
ATOM      5  C9  UNL     1      14.731  47.249  60.558  0.00  0.00    +0.000 C 
ATOM      6  C19 UNL     1      13.890  46.557  61.434  0.00  0.00    +0.000 C 
ATOM      7  N1  UNL     1      13.114  45.494  61.117  0.00  0.00    +0.000 NA
ENDROOT
BRANCH   5   8
ATOM      8  C10 UNL     1      15.516  48.458  61.040  0.00  0.00    +0.000 C 
ATOM      9  C11 UNL     1      15.732  48.626  62.566  0.00  0.00    +0.000 C 
ATOM     10  C12 UNL     1      15.964  50.119  62.817  0.00  0.00    +0.000 C 
ATOM     11  C13 UNL     1      15.989  50.748  61.436  0.00  0.00    +0.000 C 
ATOM     12  F4  UNL     1      15.589  52.035  61.475  0.00  0.00    +0.000 F 
ATOM     13  C14 UNL     1      15.058  49.876  60.604  0.00  0.00    +0.000 C 
BRANCH  13  14
ATOM     14  C15 UNL     1      13.608  50.231  60.942  0.00  0.00    +0.000 C 
ATOM     15  O1  UNL     1      13.121  49.992  62.047  0.00  0.00    +0.000 OA
BRANCH  14  16
ATOM     16  C16 UNL     1      12.777  50.875  59.834  0.00  0.00    +0.000 C 
ATOM     17  C17 UNL     1      13.700  51.564  58.838  0.00  0.00    +0.000 C 
ATOM     18  C18 UNL     1      11.907  49.824  59.151  0.00  0.00    +0.000 C 
ENDBRANCH  14  16
ENDBRANCH  13  14
ENDBRANCH   5   8
BRANCH   4  19
ATOM     19  C5  UNL     1      15.412  47.476  58.130  0.00  0.00    +0.000 C 
ATOM     20  C6  UNL     1      14.803  48.382  57.345  0.00  0.00    +0.000 C 
BRANCH  20  21
ATOM     21  C7  UNL     1      15.408  49.143  56.175  0.00  0.00    +0.000 C 
ATOM     22 CL1  UNL     1      14.018  49.877  55.272  0.00  0.00    +0.000 Cl
ATOM     23 CL2  UNL     1      16.152  47.901  55.084  0.00  0.00    +0.000 Cl
BRANCH  21  24
ATOM     24  C8  UNL     1      16.450  50.237  56.505  0.00  0.00    +0.000 C 
ATOM     25  F1  UNL     1      16.764  50.276  57.823  0.00  0.00    +0.000 F 
ATOM     26  F2  UNL     1      17.614  50.050  55.831  0.00  0.00    +0.000 F 
ATOM     27  F3  UNL     1      16.007  51.477  56.170  0.00  0.00    +0.000 F 
ENDBRANCH  21  24
ENDBRANCH  20  21
ENDBRANCH   4  19
TORSDOF 6
ENDMDL
MODEL 4
REMARK VINA RESULT:    -6.937      3.323      6.357
REMARK INTER + INTRA:         -11.151
REMARK INTER:                 -10.934
REMARK INTRA:                  -0.218
REMARK UNBOUND:                -1.781
REMARK  Name = teste_validacao_ia\MutanteIA_Top5.pdb
REMARK  9 active torsions:
REMARK  status: ('A' for Active; 'I' for Inactive)
REMARK    1  A    between atoms: C1_1  and  C2_2
REMARK    2  A    between atoms: C4_4  and  C5_5
REMARK    3  A    between atoms: C6_6  and  C7_7
REMARK    4  A    between atoms: C7_7  and  C8_10
REMARK    5  A    between atoms: C9_14  and  C10_15
REMARK    6  A    between atoms: C14_20  and  C15_21
REMARK    7  A    between atoms: C15_21  and  C16_23
REMARK    8  A    between atoms: C16_23  and  C17_24
REMARK    9  A    between atoms: C16_23  and  C18_25
REMARK                            x       y       z     vdW  Elec       q    Type
REMARK                         _______ _______ _______ _____ _____    ______ ____
ROOT
ATOM      1  C1  UNL     1      -3.077  61.015  73.826  0.00  0.00    +0.000 C 
ATOM      2  C2  UNL     1      -1.821  60.603  73.120  0.00  0.00    +0.000 C 
ATOM      3  C3  UNL     1      -1.231  59.378  73.394  0.00  0.00    +0.000 C 
ATOM      4  C4  UNL     1      -0.055  59.008  72.720  0.00  0.00    +0.000 C 
ATOM      5  C9  UNL     1       0.532  59.892  71.795  0.00  0.00    +0.000 C 
ATOM      6  C19 UNL     1      -0.173  61.079  71.579  0.00  0.00    +0.000 C 
ATOM      7  N1  UNL     1      -1.314  61.450  72.207  0.00  0.00    +0.000 NA
ENDROOT
BRANCH   5   8
ATOM      8  C10 UNL     1       1.780  59.581  70.984  0.00  0.00    +0.000 C 
ATOM      9  C11 UNL     1       3.077  59.217  71.752  0.00  0.00    +0.000 C 
ATOM     10  C12 UNL     1       4.248  59.555  70.824  0.00  0.00    +0.000 C 
ATOM     11  C13 UNL     1       3.602  59.992  69.522  0.00  0.00    +0.000 C 
ATOM     12  F4  UNL     1       4.390  60.854  68.848  0.00  0.00    +0.000 F 
ATOM     13  C14 UNL     1       2.281  60.620  69.945  0.00  0.00    +0.000 C 
BRANCH  13  14
ATOM     14  C15 UNL     1       2.550  62.023  70.496  0.00  0.00    +0.000 C 
ATOM     15  O1  UNL     1       2.927  62.204  71.653  0.00  0.00    +0.000 OA
BRANCH  14  16
ATOM     16  C16 UNL     1       2.305  63.197  69.550  0.00  0.00    +0.000 C 
ATOM     17  C17 UNL     1       1.151  64.042  70.073  0.00  0.00    +0.000 C 
ATOM     18  C18 UNL     1       3.578  64.025  69.401  0.00  0.00    +0.000 C 
ENDBRANCH  14  16
ENDBRANCH  13  14
ENDBRANCH   5   8
BRANCH   4  19
ATOM     19  C5  UNL     1       0.462  57.659  72.986  0.00  0.00    +0.000 C 
ATOM     20  C6  UNL     1      -0.011  56.906  73.993  0.00  0.00    +0.000 C 
BRANCH  20  21
ATOM     21  C7  UNL     1       0.439  55.508  74.390  0.00  0.00    +0.000 C 
ATOM     22 CL1  UNL     1       0.279  55.415  76.194  0.00  0.00    +0.000 Cl
ATOM     23 CL2  UNL     1       2.209  55.412  74.009  0.00  0.00    +0.000 Cl
BRANCH  21  24
ATOM     24  C8  UNL     1      -0.298  54.315  73.740  0.00  0.00    +0.000 C 
ATOM     25  F1  UNL     1       0.508  53.239  73.566  0.00  0.00    +0.000 F 
ATOM     26  F2  UNL     1      -1.352  53.899  74.488  0.00  0.00    +0.000 F 
ATOM     27  F3  UNL     1      -0.797  54.632  72.516  0.00  0.00    +0.000 F 
ENDBRANCH  21  24
ENDBRANCH  20  21
ENDBRANCH   4  19
TORSDOF 6
ENDMDL
MODEL 5
REMARK VINA RESULT:    -6.806      1.956      2.374
REMARK INTER + INTRA:         -10.974
REMARK INTER:                  -9.345
REMARK INTRA:                  -1.630
REMARK UNBOUND:                -1.781
REMARK  Name = teste_validacao_ia\MutanteIA_Top5.pdb
REMARK  9 active torsions:
REMARK  status: ('A' for Active; 'I' for Inactive)
REMARK    1  A    between atoms: C1_1  and  C2_2
REMARK    2  A    between atoms: C4_4  and  C5_5
REMARK    3  A    between atoms: C6_6  and  C7_7
REMARK    4  A    between atoms: C7_7  and  C8_10
REMARK    5  A    between atoms: C9_14  and  C10_15
REMARK    6  A    between atoms: C14_20  and  C15_21
REMARK    7  A    between atoms: C15_21  and  C16_23
REMARK    8  A    between atoms: C16_23  and  C17_24
REMARK    9  A    between atoms: C16_23  and  C18_25
REMARK                            x       y       z     vdW  Elec       q    Type
REMARK                         _______ _______ _______ _____ _____    ______ ____
ROOT
ATOM      1  C1  UNL     1      -0.908  63.228  74.961  0.00  0.00    +0.000 C 
ATOM      2  C2  UNL     1      -0.618  61.856  74.434  0.00  0.00    +0.000 C 
ATOM      3  C3  UNL     1       0.049  61.691  73.230  0.00  0.00    +0.000 C 
ATOM      4  C4  UNL     1       0.314  60.396  72.754  0.00  0.00    +0.000 C 
ATOM      5  C9  UNL     1      -0.123  59.275  73.486  0.00  0.00    +0.000 C 
ATOM      6  C19 UNL     1      -0.752  59.569  74.700  0.00  0.00    +0.000 C 
ATOM      7  N1  UNL     1      -1.006  60.807  75.184  0.00  0.00    +0.000 NA
ENDROOT
BRANCH   5   8
ATOM      8  C10 UNL     1       0.140  57.832  73.086  0.00  0.00    +0.000 C 
ATOM      9  C11 UNL     1      -0.779  56.733  73.677  0.00  0.00    +0.000 C 
ATOM     10  C12 UNL     1       0.020  55.426  73.644  0.00  0.00    +0.000 C 
ATOM     11  C13 UNL     1       1.318  55.779  72.940  0.00  0.00    +0.000 C 
ATOM     12  F4  UNL     1       2.326  54.978  73.339  0.00  0.00    +0.000 F 
ATOM     13  C14 UNL     1       1.559  57.239  73.298  0.00  0.00    +0.000 C 
BRANCH  13  14
ATOM     14  C15 UNL     1       2.099  57.319  74.728  0.00  0.00    +0.000 C 
ATOM     15  O1  UNL     1       1.633  56.632  75.637  0.00  0.00    +0.000 OA
BRANCH  14  16
ATOM     16  C16 UNL     1       3.229  58.313  74.987  0.00  0.00    +0.000 C 
ATOM     17  C17 UNL     1       3.799  58.796  73.660  0.00  0.00    +0.000 C 
ATOM     18  C18 UNL     1       2.720  59.479  75.830  0.00  0.00    +0.000 C 
ENDBRANCH  14  16
ENDBRANCH  13  14
ENDBRANCH   5   8
BRANCH   4  19
ATOM     19  C5  UNL     1       1.108  60.294  71.523  0.00  0.00    +0.000 C 
ATOM     20  C6  UNL     1       2.173  61.083  71.300  0.00  0.00    +0.000 C 
BRANCH  20  21
ATOM     21  C7  UNL     1       3.070  61.097  70.072  0.00  0.00    +0.000 C 
ATOM     22 CL1  UNL     1       3.050  59.410  69.408  0.00  0.00    +0.000 Cl
ATOM     23 CL2  UNL     1       4.753  61.410  70.670  0.00  0.00    +0.000 Cl
BRANCH  21  24
ATOM     24  C8  UNL     1       2.722  62.103  68.951  0.00  0.00    +0.000 C 
ATOM     25  F1  UNL     1       2.423  63.335  69.432  0.00  0.00    +0.000 F 
ATOM     26  F2  UNL     1       3.746  62.262  68.075  0.00  0.00    +0.000 F 
ATOM     27  F3  UNL     1       1.651  61.697  68.220  0.00  0.00    +0.000 F 
ENDBRANCH  21  24
ENDBRANCH  20  21
ENDBRANCH   4  19
TORSDOF 6
ENDMDL
MODEL 6
REMARK VINA RESULT:    -6.714     20.825     22.971
REMARK INTER + INTRA:         -10.850
REMARK INTER:                  -9.688
REMARK INTRA:                  -1.162
REMARK UNBOUND:                -1.781
REMARK  Name = teste_validacao_ia\MutanteIA_Top5.pdb
REMARK  9 active torsions:
REMARK  status: ('A' for Active; 'I' for Inactive)
REMARK    1  A    between atoms: C1_1  and  C2_2
REMARK    2  A    between atoms: C4_4  and  C5_5
REMARK    3  A    between atoms: C6_6  and  C7_7
REMARK    4  A    between atoms: C7_7  and  C8_10
REMARK    5  A    between atoms: C9_14  and  C10_15
REMARK    6  A    between atoms: C14_20  and  C15_21
REMARK    7  A    between atoms: C15_21  and  C16_23
REMARK    8  A    between atoms: C16_23  and  C17_24
REMARK    9  A    between atoms: C16_23  and  C18_25
REMARK                            x       y       z     vdW  Elec       q    Type
REMARK                         _______ _______ _______ _____ _____    ______ ____
ROOT
ATOM      1  C1  UNL     1      17.732  47.059  54.420  0.00  0.00    +0.000 C 
ATOM      2  C2  UNL     1      16.823  47.957  55.202  0.00  0.00    +0.000 C 
ATOM      3  C3  UNL     1      15.467  47.684  55.287  0.00  0.00    +0.000 C 
ATOM      4  C4  UNL     1      14.631  48.537  56.027  0.00  0.00    +0.000 C 
ATOM      5  C9  UNL     1      15.169  49.678  56.654  0.00  0.00    +0.000 C 
ATOM      6  C19 UNL     1      16.553  49.827  56.525  0.00  0.00    +0.000 C 
ATOM      7  N1  UNL     1      17.379  49.012  55.828  0.00  0.00    +0.000 NA
ENDROOT
BRANCH   5   8
ATOM      8  C10 UNL     1      14.367  50.647  57.508  0.00  0.00    +0.000 C 
ATOM      9  C11 UNL     1      15.000  52.025  57.835  0.00  0.00    +0.000 C 
ATOM     10  C12 UNL     1      14.339  52.516  59.127  0.00  0.00    +0.000 C 
ATOM     11  C13 UNL     1      13.279  51.478  59.444  0.00  0.00    +0.000 C 
ATOM     12  F4  UNL     1      13.037  51.412  60.769  0.00  0.00    +0.000 F 
ATOM     13  C14 UNL     1      13.844  50.177  58.891  0.00  0.00    +0.000 C 
BRANCH  13  14
ATOM     14  C15 UNL     1      14.912  49.648  59.853  0.00  0.00    +0.000 C 
ATOM     15  O1  UNL     1      16.005  50.200  59.975  0.00  0.00    +0.000 OA
BRANCH  14  16
ATOM     16  C16 UNL     1      14.570  48.385  60.641  0.00  0.00    +0.000 C 
ATOM     17  C17 UNL     1      14.521  47.192  59.696  0.00  0.00    +0.000 C 
ATOM     18  C18 UNL     1      15.591  48.170  61.755  0.00  0.00    +0.000 C 
ENDBRANCH  14  16
ENDBRANCH  13  14
ENDBRANCH   5   8
BRANCH   4  19
ATOM     19  C5  UNL     1      13.225  48.135  56.156  0.00  0.00    +0.000 C 
ATOM     20  C6  UNL     1      12.268  48.644  55.361  0.00  0.00    +0.000 C 
BRANCH  20  21
ATOM     21  C7  UNL     1      10.780  48.333  55.392  0.00  0.00    +0.000 C 
ATOM     22 CL1  UNL     1      10.457  47.550  56.996  0.00  0.00    +0.000 Cl
ATOM     23 CL2  UNL     1      10.492  47.073  54.121  0.00  0.00    +0.000 Cl
BRANCH  21  24
ATOM     24  C8  UNL     1       9.804  49.514  55.184  0.00  0.00    +0.000 C 
ATOM     25  F1  UNL     1       9.855  50.415  56.195  0.00  0.00    +0.000 F 
ATOM     26  F2  UNL     1      10.066  50.194  54.039  0.00  0.00    +0.000 F 
ATOM     27  F3  UNL     1       8.513  49.096  55.096  0.00  0.00    +0.000 F 
ENDBRANCH  21  24
ENDBRANCH  20  21
ENDBRANCH   4  19
TORSDOF 6
ENDMDL
MODEL 7
REMARK VINA RESULT:    -6.698     18.725     20.872
REMARK INTER + INTRA:         -10.828
REMARK INTER:                  -9.053
REMARK INTRA:                  -1.775
REMARK UNBOUND:                -1.781
REMARK  Name = teste_validacao_ia\MutanteIA_Top5.pdb
REMARK  9 active torsions:
REMARK  status: ('A' for Active; 'I' for Inactive)
REMARK    1  A    between atoms: C1_1  and  C2_2
REMARK    2  A    between atoms: C4_4  and  C5_5
REMARK    3  A    between atoms: C6_6  and  C7_7
REMARK    4  A    between atoms: C7_7  and  C8_10
REMARK    5  A    between atoms: C9_14  and  C10_15
REMARK    6  A    between atoms: C14_20  and  C15_21
REMARK    7  A    between atoms: C15_21  and  C16_23
REMARK    8  A    between atoms: C16_23  and  C17_24
REMARK    9  A    between atoms: C16_23  and  C18_25
REMARK                            x       y       z     vdW  Elec       q    Type
REMARK                         _______ _______ _______ _____ _____    ______ ____
ROOT
ATOM      1  C1  UNL     1      11.856  49.029  54.041  0.00  0.00    +0.000 C 
ATOM      2  C2  UNL     1      12.279  49.602  55.359  0.00  0.00    +0.000 C 
ATOM      3  C3  UNL     1      11.427  49.558  56.452  0.00  0.00    +0.000 C 
ATOM      4  C4  UNL     1      11.843  50.098  57.680  0.00  0.00    +0.000 C 
ATOM      5  C9  UNL     1      13.109  50.706  57.788  0.00  0.00    +0.000 C 
ATOM      6  C19 UNL     1      13.890  50.658  56.629  0.00  0.00    +0.000 C 
ATOM      7  N1  UNL     1      13.514  50.131  55.440  0.00  0.00    +0.000 NA
ENDROOT
BRANCH   5   8
ATOM      8  C10 UNL     1      13.675  51.290  59.073  0.00  0.00    +0.000 C 
ATOM      9  C11 UNL     1      14.786  52.364  58.957  0.00  0.00    +0.000 C 
ATOM     10  C12 UNL     1      15.576  52.324  60.269  0.00  0.00    +0.000 C 
ATOM     11  C13 UNL     1      14.840  51.320  61.138  0.00  0.00    +0.000 C 
ATOM     12  F4  UNL     1      15.672  50.731  62.020  0.00  0.00    +0.000 F 
ATOM     13  C14 UNL     1      14.244  50.328  60.149  0.00  0.00    +0.000 C 
BRANCH  13  14
ATOM     14  C15 UNL     1      15.346  49.380  59.668  0.00  0.00    +0.000 C 
ATOM     15  O1  UNL     1      16.414  49.799  59.223  0.00  0.00    +0.000 OA
BRANCH  14  16
ATOM     16  C16 UNL     1      15.052  47.883  59.740  0.00  0.00    +0.000 C 
ATOM     17  C17 UNL     1      13.947  47.627  60.756  0.00  0.00    +0.000 C 
ATOM     18  C18 UNL     1      14.671  47.356  58.360  0.00  0.00    +0.000 C 
ENDBRANCH  14  16
ENDBRANCH  13  14
ENDBRANCH   5   8
BRANCH   4  19
ATOM     19  C5  UNL     1      10.930  49.932  58.819  0.00  0.00    +0.000 C 
ATOM     20  C6  UNL     1      10.568  48.716  59.262  0.00  0.00    +0.000 C 
BRANCH  20  21
ATOM     21  C7  UNL     1       9.626  48.397  60.413  0.00  0.00    +0.000 C 
ATOM     22 CL1  UNL     1       9.293  46.617  60.320  0.00  0.00    +0.000 Cl
ATOM     23 CL2  UNL     1       8.066  49.247  60.050  0.00  0.00    +0.000 Cl
BRANCH  21  24
ATOM     24  C8  UNL     1      10.098  48.765  61.839  0.00  0.00    +0.000 C 
ATOM     25  F1  UNL     1      11.333  49.323  61.849  0.00  0.00    +0.000 F 
ATOM     26  F2  UNL     1       9.262  49.650  62.439  0.00  0.00    +0.000 F 
ATOM     27  F3  UNL     1      10.153  47.677  62.652  0.00  0.00    +0.000 F 
ENDBRANCH  21  24
ENDBRANCH  20  21
ENDBRANCH   4  19
TORSDOF 6
ENDMDL
MODEL 8
REMARK VINA RESULT:    -6.270     14.293     16.644
REMARK INTER + INTRA:         -10.250
REMARK INTER:                  -9.430
REMARK INTRA:                  -0.820
REMARK UNBOUND:                -1.781
REMARK  Name = teste_validacao_ia\MutanteIA_Top5.pdb
REMARK  9 active torsions:
REMARK  status: ('A' for Active; 'I' for Inactive)
REMARK    1  A    between atoms: C1_1  and  C2_2
REMARK    2  A    between atoms: C4_4  and  C5_5
REMARK    3  A    between atoms: C6_6  and  C7_7
REMARK    4  A    between atoms: C7_7  and  C8_10
REMARK    5  A    between atoms: C9_14  and  C10_15
REMARK    6  A    between atoms: C14_20  and  C15_21
REMARK    7  A    between atoms: C15_21  and  C16_23
REMARK    8  A    between atoms: C16_23  and  C17_24
REMARK    9  A    between atoms: C16_23  and  C18_25
REMARK                            x       y       z     vdW  Elec       q    Type
REMARK                         _______ _______ _______ _____ _____    ______ ____
ROOT
ATOM      1  C1  UNL     1       4.733  50.406  67.085  0.00  0.00    +0.000 C 
ATOM      2  C2  UNL     1       4.727  49.736  65.744  0.00  0.00    +0.000 C 
ATOM      3  C3  UNL     1       4.740  48.353  65.649  0.00  0.00    +0.000 C 
ATOM      4  C4  UNL     1       4.732  47.744  64.383  0.00  0.00    +0.000 C 
ATOM      5  C9  UNL     1       4.739  48.538  63.221  0.00  0.00    +0.000 C 
ATOM      6  C19 UNL     1       4.690  49.917  63.445  0.00  0.00    +0.000 C 
ATOM      7  N1  UNL     1       4.685  50.525  64.655  0.00  0.00    +0.000 NA
ENDROOT
BRANCH   5   8
ATOM      8  C10 UNL     1       4.694  47.988  61.804  0.00  0.00    +0.000 C 
ATOM      9  C11 UNL     1       4.065  46.587  61.586  0.00  0.00    +0.000 C 
ATOM     10  C12 UNL     1       4.672  46.029  60.295  0.00  0.00    +0.000 C 
ATOM     11  C13 UNL     1       5.535  47.152  59.750  0.00  0.00    +0.000 C 
ATOM     12  F4  UNL     1       6.558  46.673  59.013  0.00  0.00    +0.000 F 
ATOM     13  C14 UNL     1       6.011  47.899  60.989  0.00  0.00    +0.000 C 
BRANCH  13  14
ATOM     14  C15 UNL     1       7.141  47.103  61.648  0.00  0.00    +0.000 C 
ATOM     15  O1  UNL     1       7.013  45.913  61.935  0.00  0.00    +0.000 OA
BRANCH  14  16
ATOM     16  C16 UNL     1       8.431  47.859  61.958  0.00  0.00    +0.000 C 
ATOM     17  C17 UNL     1       8.654  48.941  60.911  0.00  0.00    +0.000 C 
ATOM     18  C18 UNL     1       8.368  48.449  63.364  0.00  0.00    +0.000 C 
ENDBRANCH  14  16
ENDBRANCH  13  14
ENDBRANCH   5   8
BRANCH   4  19
ATOM     19  C5  UNL     1       4.648  46.278  64.356  0.00  0.00    +0.000 C 
ATOM     20  C6  UNL     1       4.042  45.585  65.336  0.00  0.00    +0.000 C 
BRANCH  20  21
ATOM     21  C7  UNL     1       3.896  44.075  65.444  0.00  0.00    +0.000 C 
ATOM     22 CL1  UNL     1       3.155  43.522  63.884  0.00  0.00    +0.000 Cl
ATOM     23 CL2  UNL     1       2.674  43.770  66.748  0.00  0.00    +0.000 Cl
BRANCH  21  24
ATOM     24  C8  UNL     1       5.177  43.257  65.730  0.00  0.00    +0.000 C 
ATOM     25  F1  UNL     1       5.536  42.472  64.686  0.00  0.00    +0.000 F 
ATOM     26  F2  UNL     1       6.239  44.057  66.004  0.00  0.00    +0.000 F 
ATOM     27  F3  UNL     1       5.026  42.438  66.804  0.00  0.00    +0.000 F 
ENDBRANCH  21  24
ENDBRANCH  20  21
ENDBRANCH   4  19
TORSDOF 6
ENDMDL
MODEL 9
REMARK VINA RESULT:    -6.267     18.993     20.762
REMARK INTER + INTRA:         -10.246
REMARK INTER:                  -9.060
REMARK INTRA:                  -1.186
REMARK UNBOUND:                -1.781
REMARK  Name = teste_validacao_ia\MutanteIA_Top5.pdb
REMARK  9 active torsions:
REMARK  status: ('A' for Active; 'I' for Inactive)
REMARK    1  A    between atoms: C1_1  and  C2_2
REMARK    2  A    between atoms: C4_4  and  C5_5
REMARK    3  A    between atoms: C6_6  and  C7_7
REMARK    4  A    between atoms: C7_7  and  C8_10
REMARK    5  A    between atoms: C9_14  and  C10_15
REMARK    6  A    between atoms: C14_20  and  C15_21
REMARK    7  A    between atoms: C15_21  and  C16_23
REMARK    8  A    between atoms: C16_23  and  C17_24
REMARK    9  A    between atoms: C16_23  and  C18_25
REMARK                            x       y       z     vdW  Elec       q    Type
REMARK                         _______ _______ _______ _____ _____    ______ ____
ROOT
ATOM      1  C1  UNL     1       9.422  48.376  62.602  0.00  0.00    +0.000 C 
ATOM      2  C2  UNL     1       9.543  48.747  61.156  0.00  0.00    +0.000 C 
ATOM      3  C3  UNL     1      10.669  49.409  60.691  0.00  0.00    +0.000 C 
ATOM      4  C4  UNL     1      10.766  49.745  59.331  0.00  0.00    +0.000 C 
ATOM      5  C9  UNL     1       9.709  49.434  58.453  0.00  0.00    +0.000 C 
ATOM      6  C19 UNL     1       8.645  48.736  59.031  0.00  0.00    +0.000 C 
ATOM      7  N1  UNL     1       8.537  48.391  60.336  0.00  0.00    +0.000 NA
ENDROOT
BRANCH   5   8
ATOM      8  C10 UNL     1       9.721  49.717  56.959  0.00  0.00    +0.000 C 
ATOM      9  C11 UNL     1       8.591  49.105  56.093  0.00  0.00    +0.000 C 
ATOM     10  C12 UNL     1       9.138  49.001  54.665  0.00  0.00    +0.000 C 
ATOM     11  C13 UNL     1      10.509  49.651  54.723  0.00  0.00    +0.000 C 
ATOM     12  F4  UNL     1      11.335  49.140  53.789  0.00  0.00    +0.000 F 
ATOM     13  C14 UNL     1      10.996  49.383  56.140  0.00  0.00    +0.000 C 
BRANCH  13  14
ATOM     14  C15 UNL     1      11.477  47.932  56.235  0.00  0.00    +0.000 C 
ATOM     15  O1  UNL     1      10.689  46.987  56.254  0.00  0.00    +0.000 OA
BRANCH  14  16
ATOM     16  C16 UNL     1      12.985  47.707  56.332  0.00  0.00    +0.000 C 
ATOM     17  C17 UNL     1      13.324  47.094  57.684  0.00  0.00    +0.000 C 
ATOM     18  C18 UNL     1      13.457  46.818  55.185  0.00  0.00    +0.000 C 
ENDBRANCH  14  16
ENDBRANCH  13  14
ENDBRANCH   5   8
BRANCH   4  19
ATOM     19  C5  UNL     1      12.025  50.358  58.889  0.00  0.00    +0.000 C 
ATOM     20  C6  UNL     1      13.117  50.374  59.673  0.00  0.00    +0.000 C 
BRANCH  20  21
ATOM     21  C7  UNL     1      14.474  50.983  59.352  0.00  0.00    +0.000 C 
ATOM     22 CL1  UNL     1      14.346  51.655  57.673  0.00  0.00    +0.000 Cl
ATOM     23 CL2  UNL     1      15.651  49.606  59.284  0.00  0.00    +0.000 Cl
BRANCH  21  24
ATOM     24  C8  UNL     1      15.005  52.074  60.311  0.00  0.00    +0.000 C 
ATOM     25  F1  UNL     1      16.062  51.650  61.046  0.00  0.00    +0.000 F 
ATOM     26  F2  UNL     1      15.413  53.183  59.643  0.00  0.00    +0.000 F 
ATOM     27  F3  UNL     1      14.054  52.484  61.191  0.00  0.00    +0.000 F 
ENDBRANCH  21  24
ENDBRANCH  20  21
ENDBRANCH   4  19
TORSDOF 6
ENDMDL
