MODEL 1
REMARK VINA RESULT:    -6.547      0.000      0.000
REMARK INTER + INTRA:         -11.150
REMARK INTER:                  -8.844
REMARK INTRA:                  -2.306
REMARK UNBOUND:                -2.306
REMARK  Name = teste_validacao_ia\MutanteIA_Top2.pdb
REMARK  9 active torsions:
REMARK  status: ('A' for Active; 'I' for Inactive)
REMARK    1  A    between atoms: C1_1  and  C2_2
REMARK    2  A    between atoms: C4_4  and  C5_5
REMARK    3  A    between atoms: C6_6  and  C7_7
REMARK    4  A    between atoms: C7_7  and  C8_10
REMARK    5  A    between atoms: C9_14  and  C10_15
REMARK    6  A    between atoms: C14_20  and  C15_21
REMARK    7  A    between atoms: C15_21  and  C16_23
REMARK    8  A    between atoms: C16_23  and  C17_24
REMARK    9  A    between atoms: C16_23  and  C18_25
REMARK                            x       y       z     vdW  Elec       q    Type
REMARK                         _______ _______ _______ _____ _____    ______ ____
ROOT
ATOM      1  C1  UNL     1      -5.031   1.787  20.345  0.00  0.00    +0.000 C 
ATOM      2  C2  UNL     1      -3.728   1.051  20.270  0.00  0.00    +0.000 C 
ATOM      3  C3  UNL     1      -2.568   1.720  19.904  0.00  0.00    +0.000 C 
ATOM      4  C4  UNL     1      -1.361   1.011  19.834  0.00  0.00    +0.000 C 
ATOM      5  C9  UNL     1      -1.342  -0.360  20.132  0.00  0.00    +0.000 C 
ATOM      6  C19 UNL     1      -2.562  -0.927  20.502  0.00  0.00    +0.000 C 
ATOM      7  N1  UNL     1      -3.738  -0.264  20.576  0.00  0.00    +0.000 NA
ENDROOT
BRANCH   5   8
ATOM      8  C10 UNL     1      -0.080  -1.203  20.062  0.00  0.00    +0.000 C 
ATOM      9  C11 UNL     1       0.369  -1.720  21.449  0.00  0.00    +0.000 C 
ATOM     10  C12 UNL     1       0.262  -3.238  21.379  0.00  0.00    +0.000 C 
ATOM     11  C13 UNL     1       0.540  -3.535  19.918  0.00  0.00    +0.000 C 
ATOM     12  F2  UNL     1       1.869  -3.365  19.692  0.00  0.00    +0.000 F 
ATOM     13  C14 UNL     1      -0.248  -2.467  19.175  0.00  0.00    +0.000 C 
BRANCH  13  14
ATOM     14  C15 UNL     1       0.233  -2.260  17.741  0.00  0.00    +0.000 C 
ATOM     15  O1  UNL     1      -0.000  -3.101  16.869  0.00  0.00    +0.000 OA
BRANCH  14  16
ATOM     16  C16 UNL     1       1.103  -1.035  17.439  0.00  0.00    +0.000 C 
ATOM     17  C17 UNL     1       0.447  -0.141  16.387  0.00  0.00    +0.000 C 
ATOM     18  C18 UNL     1       2.490  -1.468  16.972  0.00  0.00    +0.000 C 
ENDBRANCH  14  16
ENDBRANCH  13  14
ENDBRANCH   5   8
BRANCH   4  19
ATOM     19  C5  UNL     1      -0.154   1.754  19.457  0.00  0.00    +0.000 C 
ATOM     20  C6  UNL     1       0.868   1.899  20.317  0.00  0.00    +0.000 C 
BRANCH  20  21
ATOM     21  C7  UNL     1       2.191   2.630  20.103  0.00  0.00    +0.000 C 
ATOM     22 CL1  UNL     1       2.666   2.306  18.366  0.00  0.00    +0.000 Cl
ATOM     23 CL2  UNL     1       1.979   4.432  20.184  0.00  0.00    +0.000 Cl
BRANCH  21  24
ATOM     24  C8  UNL     1       3.335   2.176  21.073  0.00  0.00    +0.000 C 
ATOM     25  F1  UNL     1       4.444   1.820  20.362  0.00  0.00    +0.000 F 
ATOM     26 CL3  UNL     1       3.827   3.484  22.213  0.00  0.00    +0.000 Cl
ATOM     27 CL4  UNL     1       2.876   0.752  22.084  0.00  0.00    +0.000 Cl
ENDBRANCH  21  24
ENDBRANCH  20  21
ENDBRANCH   4  19
TORSDOF 6
ENDMDL
MODEL 2
REMARK VINA RESULT:    -6.333      3.894      5.973
REMARK INTER + INTRA:         -10.861
REMARK INTER:                  -9.014
REMARK INTRA:                  -1.847
REMARK UNBOUND:                -2.306
REMARK  Name = teste_validacao_ia\MutanteIA_Top2.pdb
REMARK  9 active torsions:
REMARK  status: ('A' for Active; 'I' for Inactive)
REMARK    1  A    between atoms: C1_1  and  C2_2
REMARK    2  A    between atoms: C4_4  and  C5_5
REMARK    3  A    between atoms: C6_6  and  C7_7
REMARK    4  A    between atoms: C7_7  and  C8_10
REMARK    5  A    between atoms: C9_14  and  C10_15
REMARK    6  A    between atoms: C14_20  and  C15_21
REMARK    7  A    between atoms: C15_21  and  C16_23
REMARK    8  A    between atoms: C16_23  and  C17_24
REMARK    9  A    between atoms: C16_23  and  C18_25
REMARK                            x       y       z     vdW  Elec       q    Type
REMARK                         _______ _______ _______ _____ _____    ______ ____
ROOT
ATOM      1  C1  UNL     1       2.606  -3.826  15.089  0.00  0.00    +0.000 C 
ATOM      2  C2  UNL     1       2.181  -3.247  16.405  0.00  0.00    +0.000 C 
ATOM      3  C3  UNL     1       1.171  -2.295  16.456  0.00  0.00    +0.000 C 
ATOM      4  C4  UNL     1       0.794  -1.763  17.696  0.00  0.00    +0.000 C 
ATOM      5  C9  UNL     1       1.439  -2.196  18.864  0.00  0.00    +0.000 C 
ATOM      6  C19 UNL     1       2.428  -3.165  18.697  0.00  0.00    +0.000 C 
ATOM      7  N1  UNL     1       2.810  -3.693  17.512  0.00  0.00    +0.000 NA
ENDROOT
BRANCH   5   8
ATOM      8  C10 UNL     1       1.103  -1.654  20.243  0.00  0.00    +0.000 C 
ATOM      9  C11 UNL     1       1.052  -2.763  21.321  0.00  0.00    +0.000 C 
ATOM     10  C12 UNL     1       2.172  -2.437  22.300  0.00  0.00    +0.000 C 
ATOM     11  C13 UNL     1       2.255  -0.925  22.238  0.00  0.00    +0.000 C 
ATOM     12  F2  UNL     1       1.185  -0.409  22.898  0.00  0.00    +0.000 F 
ATOM     13  C14 UNL     1       2.139  -0.617  20.753  0.00  0.00    +0.000 C 
BRANCH  13  14
ATOM     14  C15 UNL     1       1.730   0.827  20.473  0.00  0.00    +0.000 C 
ATOM     15  O1  UNL     1       0.548   1.173  20.540  0.00  0.00    +0.000 OA
BRANCH  14  16
ATOM     16  C16 UNL     1       2.810   1.808  20.005  0.00  0.00    +0.000 C 
ATOM     17  C17 UNL     1       3.680   2.267  21.176  0.00  0.00    +0.000 C 
ATOM     18  C18 UNL     1       2.175   3.012  19.315  0.00  0.00    +0.000 C 
ENDBRANCH  14  16
ENDBRANCH  13  14
ENDBRANCH   5   8
BRANCH   4  19
ATOM     19  C5  UNL     1      -0.285  -0.769  17.712  0.00  0.00    +0.000 C 
ATOM     20  C6  UNL     1      -1.538  -1.111  18.056  0.00  0.00    +0.000 C 
BRANCH  20  21
ATOM     21  C7  UNL     1      -2.777  -0.224  18.131  0.00  0.00    +0.000 C 
ATOM     22 CL1  UNL     1      -2.238   1.435  17.577  0.00  0.00    +0.000 Cl
ATOM     23 CL2  UNL     1      -4.029  -0.721  16.913  0.00  0.00    +0.000 Cl
BRANCH  21  24
ATOM     24  C8  UNL     1      -3.416  -0.138  19.559  0.00  0.00    +0.000 C 
ATOM     25  F1  UNL     1      -3.656   1.163  19.892  0.00  0.00    +0.000 F 
ATOM     26 CL3  UNL     1      -4.990  -1.015  19.659  0.00  0.00    +0.000 Cl
ATOM     27 CL4  UNL     1      -2.356  -0.828  20.846  0.00  0.00    +0.000 Cl
ENDBRANCH  21  24
ENDBRANCH  20  21
ENDBRANCH   4  19
TORSDOF 6
ENDMDL
MODEL 3
REMARK VINA RESULT:    -6.182      3.464      5.674
REMARK INTER + INTRA:         -10.657
REMARK INTER:                  -8.647
REMARK INTRA:                  -2.009
REMARK UNBOUND:                -2.306
REMARK  Name = teste_validacao_ia\MutanteIA_Top2.pdb
REMARK  9 active torsions:
REMARK  status: ('A' for Active; 'I' for Inactive)
REMARK    1  A    between atoms: C1_1  and  C2_2
REMARK    2  A    between atoms: C4_4  and  C5_5
REMARK    3  A    between atoms: C6_6  and  C7_7
REMARK    4  A    between atoms: C7_7  and  C8_10
REMARK    5  A    between atoms: C9_14  and  C10_15
REMARK    6  A    between atoms: C14_20  and  C15_21
REMARK    7  A    between atoms: C15_21  and  C16_23
REMARK    8  A    between atoms: C16_23  and  C17_24
REMARK    9  A    between atoms: C16_23  and  C18_25
REMARK                            x       y       z     vdW  Elec       q    Type
REMARK                         _______ _______ _______ _____ _____    ______ ____
ROOT
ATOM      1  C1  UNL     1      -1.498   3.364  16.452  0.00  0.00    +0.000 C 
ATOM      2  C2  UNL     1      -0.479   2.755  17.367  0.00  0.00    +0.000 C 
ATOM      3  C3  UNL     1       0.270   1.662  16.950  0.00  0.00    +0.000 C 
ATOM      4  C4  UNL     1       1.212   1.104  17.823  0.00  0.00    +0.000 C 
ATOM      5  C9  UNL     1       1.385   1.653  19.103  0.00  0.00    +0.000 C 
ATOM      6  C19 UNL     1       0.590   2.757  19.411  0.00  0.00    +0.000 C 
ATOM      7  N1  UNL     1      -0.325   3.312  18.586  0.00  0.00    +0.000 NA
ENDROOT
BRANCH   5   8
ATOM      8  C10 UNL     1       2.371   1.095  20.115  0.00  0.00    +0.000 C 
ATOM      9  C11 UNL     1       3.378   2.159  20.613  0.00  0.00    +0.000 C 
ATOM     10  C12 UNL     1       3.106   2.319  22.103  0.00  0.00    +0.000 C 
ATOM     11  C13 UNL     1       2.620   0.943  22.514  0.00  0.00    +0.000 C 
ATOM     12  F2  UNL     1       3.687   0.102  22.542  0.00  0.00    +0.000 F 
ATOM     13  C14 UNL     1       1.679   0.541  21.390  0.00  0.00    +0.000 C 
BRANCH  13  14
ATOM     14  C15 UNL     1       1.430  -0.964  21.330  0.00  0.00    +0.000 C 
ATOM     15  O1  UNL     1       2.367  -1.756  21.204  0.00  0.00    +0.000 OA
BRANCH  14  16
ATOM     16  C16 UNL     1      -0.021  -1.458  21.324  0.00  0.00    +0.000 C 
ATOM     17  C17 UNL     1      -0.177  -2.698  20.443  0.00  0.00    +0.000 C 
ATOM     18  C18 UNL     1      -0.959  -0.352  20.848  0.00  0.00    +0.000 C 
ENDBRANCH  14  16
ENDBRANCH  13  14
ENDBRANCH   5   8
BRANCH   4  19
ATOM     19  C5  UNL     1       1.994  -0.040  17.343  0.00  0.00    +0.000 C 
ATOM     20  C6  UNL     1       1.536  -1.296  17.473  0.00  0.00    +0.000 C 
BRANCH  20  21
ATOM     21  C7  UNL     1       2.202  -2.599  17.037  0.00  0.00    +0.000 C 
ATOM     22 CL1  UNL     1       3.762  -2.111  16.214  0.00  0.00    +0.000 Cl
ATOM     23 CL2  UNL     1       2.735  -3.587  18.465  0.00  0.00    +0.000 Cl
BRANCH  21  24
ATOM     24  C8  UNL     1       1.328  -3.471  16.072  0.00  0.00    +0.000 C 
ATOM     25  F1  UNL     1       0.255  -3.985  16.740  0.00  0.00    +0.000 F 
ATOM     26 CL3  UNL     1       0.685  -2.518  14.682  0.00  0.00    +0.000 Cl
ATOM     27 CL4  UNL     1       2.233  -4.866  15.370  0.00  0.00    +0.000 Cl
ENDBRANCH  21  24
ENDBRANCH  20  21
ENDBRANCH   4  19
TORSDOF 6
ENDMDL
MODEL 4
REMARK VINA RESULT:    -6.172     25.398     27.621
REMARK INTER + INTRA:         -10.643
REMARK INTER:                  -8.502
REMARK INTRA:                  -2.141
REMARK UNBOUND:                -2.306
REMARK  Name = teste_validacao_ia\MutanteIA_Top2.pdb
REMARK  9 active torsions:
REMARK  status: ('A' for Active; 'I' for Inactive)
REMARK    1  A    between atoms: C1_1  and  C2_2
REMARK    2  A    between atoms: C4_4  and  C5_5
REMARK    3  A    between atoms: C6_6  and  C7_7
REMARK    4  A    between atoms: C7_7  and  C8_10
REMARK    5  A    between atoms: C9_14  and  C10_15
REMARK    6  A    between atoms: C14_20  and  C15_21
REMARK    7  A    between atoms: C15_21  and  C16_23
REMARK    8  A    between atoms: C16_23  and  C17_24
REMARK    9  A    between atoms: C16_23  and  C18_25
REMARK                            x       y       z     vdW  Elec       q    Type
REMARK                         _______ _______ _______ _____ _____    ______ ____
ROOT
ATOM      1  C1  UNL     1      17.925 -11.316  -2.858  0.00  0.00    +0.000 C 
ATOM      2  C2  UNL     1      18.185 -11.326  -1.383  0.00  0.00    +0.000 C 
ATOM      3  C3  UNL     1      17.671 -10.320  -0.575  0.00  0.00    +0.000 C 
ATOM      4  C4  UNL     1      17.933 -10.345   0.801  0.00  0.00    +0.000 C 
ATOM      5  C9  UNL     1      18.708 -11.381   1.343  0.00  0.00    +0.000 C 
ATOM      6  C19 UNL     1      19.161 -12.346   0.443  0.00  0.00    +0.000 C 
ATOM      7  N1  UNL     1      18.922 -12.342  -0.888  0.00  0.00    +0.000 NA
ENDROOT
BRANCH   5   8
ATOM      8  C10 UNL     1      19.052 -11.470   2.820  0.00  0.00    +0.000 C 
ATOM      9  C11 UNL     1      18.476 -12.740   3.490  0.00  0.00    +0.000 C 
ATOM     10  C12 UNL     1      19.683 -13.554   3.937  0.00  0.00    +0.000 C 
ATOM     11  C13 UNL     1      20.723 -12.492   4.236  0.00  0.00    +0.000 C 
ATOM     12  F2  UNL     1      20.387 -11.878   5.401  0.00  0.00    +0.000 F 
ATOM     13  C14 UNL     1      20.582 -11.513   3.081  0.00  0.00    +0.000 C 
BRANCH  13  14
ATOM     14  C15 UNL     1      21.177 -10.140   3.386  0.00  0.00    +0.000 C 
ATOM     15  O1  UNL     1      22.361 -10.022   3.711  0.00  0.00    +0.000 OA
BRANCH  14  16
ATOM     16  C16 UNL     1      20.239  -8.928   3.382  0.00  0.00    +0.000 C 
ATOM     17  C17 UNL     1      20.909  -7.716   2.734  0.00  0.00    +0.000 C 
ATOM     18  C18 UNL     1      19.798  -8.590   4.803  0.00  0.00    +0.000 C 
ENDBRANCH  14  16
ENDBRANCH  13  14
ENDBRANCH   5   8
BRANCH   4  19
ATOM     19  C5  UNL     1      17.362  -9.273   1.623  0.00  0.00    +0.000 C 
ATOM     20  C6  UNL     1      16.701  -8.246   1.063  0.00  0.00    +0.000 C 
BRANCH  20  21
ATOM     21  C7  UNL     1      16.045  -7.051   1.750  0.00  0.00    +0.000 C 
ATOM     22 CL1  UNL     1      14.443  -6.805   0.901  0.00  0.00    +0.000 Cl
ATOM     23 CL2  UNL     1      15.592  -7.434   3.467  0.00  0.00    +0.000 Cl
BRANCH  21  24
ATOM     24  C8  UNL     1      16.896  -5.737   1.696  0.00  0.00    +0.000 C 
ATOM     25  F1  UNL     1      18.140  -5.957   2.211  0.00  0.00    +0.000 F 
ATOM     26 CL3  UNL     1      17.115  -5.132   0.010  0.00  0.00    +0.000 Cl
ATOM     27 CL4  UNL     1      16.164  -4.385   2.641  0.00  0.00    +0.000 Cl
ENDBRANCH  21  24
ENDBRANCH  20  21
ENDBRANCH   4  19
TORSDOF 6
ENDMDL
MODEL 5
REMARK VINA RESULT:    -6.104      3.301      4.645
REMARK INTER + INTRA:         -10.551
REMARK INTER:                  -9.098
REMARK INTRA:                  -1.453
REMARK UNBOUND:                -2.306
REMARK  Name = teste_validacao_ia\MutanteIA_Top2.pdb
REMARK  9 active torsions:
REMARK  status: ('A' for Active; 'I' for Inactive)
REMARK    1  A    between atoms: C1_1  and  C2_2
REMARK    2  A    between atoms: C4_4  and  C5_5
REMARK    3  A    between atoms: C6_6  and  C7_7
REMARK    4  A    between atoms: C7_7  and  C8_10
REMARK    5  A    between atoms: C9_14  and  C10_15
REMARK    6  A    between atoms: C14_20  and  C15_21
REMARK    7  A    between atoms: C15_21  and  C16_23
REMARK    8  A    between atoms: C16_23  and  C17_24
REMARK    9  A    between atoms: C16_23  and  C18_25
REMARK                            x       y       z     vdW  Elec       q    Type
REMARK                         _______ _______ _______ _____ _____    ______ ____
ROOT
ATOM      1  C1  UNL     1       3.201   1.500  22.920  0.00  0.00    +0.000 C 
ATOM      2  C2  UNL     1       2.674   0.375  22.082  0.00  0.00    +0.000 C 
ATOM      3  C3  UNL     1       2.159   0.628  20.818  0.00  0.00    +0.000 C 
ATOM      4  C4  UNL     1       1.665  -0.438  20.054  0.00  0.00    +0.000 C 
ATOM      5  C9  UNL     1       1.697  -1.741  20.575  0.00  0.00    +0.000 C 
ATOM      6  C19 UNL     1       2.249  -1.881  21.848  0.00  0.00    +0.000 C 
ATOM      7  N1  UNL     1       2.730  -0.868  22.604  0.00  0.00    +0.000 NA
ENDROOT
BRANCH   5   8
ATOM      8  C10 UNL     1       1.165  -2.946  19.819  0.00  0.00    +0.000 C 
ATOM      9  C11 UNL     1      -0.362  -3.128  19.988  0.00  0.00    +0.000 C 
ATOM     10  C12 UNL     1      -0.955  -2.948  18.597  0.00  0.00    +0.000 C 
ATOM     11  C13 UNL     1       0.148  -3.448  17.685  0.00  0.00    +0.000 C 
ATOM     12  F2  UNL     1       0.191  -4.804  17.767  0.00  0.00    +0.000 F 
ATOM     13  C14 UNL     1       1.412  -2.856  18.289  0.00  0.00    +0.000 C 
BRANCH  13  14
ATOM     14  C15 UNL     1       2.681  -3.579  17.843  0.00  0.00    +0.000 C 
ATOM     15  O1  UNL     1       3.225  -4.411  18.574  0.00  0.00    +0.000 OA
BRANCH  14  16
ATOM     16  C16 UNL     1       3.319  -3.167  16.512  0.00  0.00    +0.000 C 
ATOM     17  C17 UNL     1       3.211  -1.657  16.295  0.00  0.00    +0.000 C 
ATOM     18  C18 UNL     1       2.664  -3.914  15.353  0.00  0.00    +0.000 C 
ENDBRANCH  14  16
ENDBRANCH  13  14
ENDBRANCH   5   8
BRANCH   4  19
ATOM     19  C5  UNL     1       1.141  -0.135  18.718  0.00  0.00    +0.000 C 
ATOM     20  C6  UNL     1       0.060   0.647  18.558  0.00  0.00    +0.000 C 
BRANCH  20  21
ATOM     21  C7  UNL     1      -0.622   1.070  17.260  0.00  0.00    +0.000 C 
ATOM     22 CL1  UNL     1      -0.162  -0.195  16.020  0.00  0.00    +0.000 Cl
ATOM     23 CL2  UNL     1      -2.430   0.944  17.383  0.00  0.00    +0.000 Cl
BRANCH  21  24
ATOM     24  C8  UNL     1      -0.212   2.496  16.758  0.00  0.00    +0.000 C 
ATOM     25  F1  UNL     1      -1.114   3.426  17.189  0.00  0.00    +0.000 F 
ATOM     26 CL3  UNL     1       1.408   2.999  17.371  0.00  0.00    +0.000 Cl
ATOM     27 CL4  UNL     1      -0.147   2.618  14.959  0.00  0.00    +0.000 Cl
ENDBRANCH  21  24
ENDBRANCH  20  21
ENDBRANCH   4  19
TORSDOF 6
ENDMDL
MODEL 6
REMARK VINA RESULT:    -6.013     22.949     26.183
REMARK INTER + INTRA:         -10.429
REMARK INTER:                  -8.029
REMARK INTRA:                  -2.399
REMARK UNBOUND:                -2.306
REMARK  Name = teste_validacao_ia\MutanteIA_Top2.pdb
REMARK  9 active torsions:
REMARK  status: ('A' for Active; 'I' for Inactive)
REMARK    1  A    between atoms: C1_1  and  C2_2
REMARK    2  A    between atoms: C4_4  and  C5_5
REMARK    3  A    between atoms: C6_6  and  C7_7
REMARK    4  A    between atoms: C7_7  and  C8_10
REMARK    5  A    between atoms: C9_14  and  C10_15
REMARK    6  A    between atoms: C14_20  and  C15_21
REMARK    7  A    between atoms: C15_21  and  C16_23
REMARK    8  A    between atoms: C16_23  and  C17_24
REMARK    9  A    between atoms: C16_23  and  C18_25
REMARK                            x       y       z     vdW  Elec       q    Type
REMARK                         _______ _______ _______ _____ _____    ______ ____
ROOT
ATOM      1  C1  UNL     1      20.279  -4.466   2.273  0.00  0.00    +0.000 C 
ATOM      2  C2  UNL     1      19.379  -5.402   1.525  0.00  0.00    +0.000 C 
ATOM      3  C3  UNL     1      18.005  -5.196   1.522  0.00  0.00    +0.000 C 
ATOM      4  C4  UNL     1      17.181  -6.087   0.822  0.00  0.00    +0.000 C 
ATOM      5  C9  UNL     1      17.751  -7.171   0.137  0.00  0.00    +0.000 C 
ATOM      6  C19 UNL     1      19.141  -7.273   0.196  0.00  0.00    +0.000 C 
ATOM      7  N1  UNL     1      19.957  -6.427   0.865  0.00  0.00    +0.000 NA
ENDROOT
BRANCH   5   8
ATOM      8  C10 UNL     1      16.926  -8.191  -0.629  0.00  0.00    +0.000 C 
ATOM      9  C11 UNL     1      16.868  -7.892  -2.145  0.00  0.00    +0.000 C 
ATOM     10  C12 UNL     1      17.559  -9.068  -2.824  0.00  0.00    +0.000 C 
ATOM     11  C13 UNL     1      17.267 -10.225  -1.889  0.00  0.00    +0.000 C 
ATOM     12  F2  UNL     1      15.964 -10.578  -2.037  0.00  0.00    +0.000 F 
ATOM     13  C14 UNL     1      17.485  -9.634  -0.504  0.00  0.00    +0.000 C 
BRANCH  13  14
ATOM     14  C15 UNL     1      16.812 -10.444   0.602  0.00  0.00    +0.000 C 
ATOM     15  O1  UNL     1      17.242 -11.554   0.924  0.00  0.00    +0.000 OA
BRANCH  14  16
ATOM     16  C16 UNL     1      15.528  -9.888   1.227  0.00  0.00    +0.000 C 
ATOM     17  C17 UNL     1      15.670  -9.748   2.743  0.00  0.00    +0.000 C 
ATOM     18  C18 UNL     1      14.339 -10.783   0.888  0.00  0.00    +0.000 C 
ENDBRANCH  14  16
ENDBRANCH  13  14
ENDBRANCH   5   8
BRANCH   4  19
ATOM     19  C5  UNL     1      15.737  -5.829   0.829  0.00  0.00    +0.000 C 
ATOM     20  C6  UNL     1      14.978  -6.170   1.885  0.00  0.00    +0.000 C 
BRANCH  20  21
ATOM     21  C7  UNL     1      13.474  -5.982   2.072  0.00  0.00    +0.000 C 
ATOM     22 CL1  UNL     1      12.932  -4.897   0.702  0.00  0.00    +0.000 Cl
ATOM     23 CL2  UNL     1      12.569  -7.534   1.803  0.00  0.00    +0.000 Cl
BRANCH  21  24
ATOM     24  C8  UNL     1      13.077  -5.356   3.452  0.00  0.00    +0.000 C 
ATOM     25  F1  UNL     1      13.108  -3.994   3.379  0.00  0.00    +0.000 F 
ATOM     26 CL3  UNL     1      11.411  -5.825   3.963  0.00  0.00    +0.000 Cl
ATOM     27 CL4  UNL     1      14.186  -5.840   4.790  0.00  0.00    +0.000 Cl
ENDBRANCH  21  24
ENDBRANCH  20  21
ENDBRANCH   4  19
TORSDOF 6
ENDMDL
MODEL 7
REMARK VINA RESULT:    -5.998     22.988     26.202
REMARK INTER + INTRA:         -10.409
REMARK INTER:                  -7.973
REMARK INTRA:                  -2.435
REMARK UNBOUND:                -2.306
REMARK  Name = teste_validacao_ia\MutanteIA_Top2.pdb
REMARK  9 active torsions:
REMARK  status: ('A' for Active; 'I' for Inactive)
REMARK    1  A    between atoms: C1_1  and  C2_2
REMARK    2  A    between atoms: C4_4  and  C5_5
REMARK    3  A    between atoms: C6_6  and  C7_7
REMARK    4  A    between atoms: C7_7  and  C8_10
REMARK    5  A    between atoms: C9_14  and  C10_15
REMARK    6  A    between atoms: C14_20  and  C15_21
REMARK    7  A    between atoms: C15_21  and  C16_23
REMARK    8  A    between atoms: C16_23  and  C17_24
REMARK    9  A    between atoms: C16_23  and  C18_25
REMARK                            x       y       z     vdW  Elec       q    Type
REMARK                         _______ _______ _______ _____ _____    ______ ____
ROOT
ATOM      1  C1  UNL     1      19.068  -4.470  -2.992  0.00  0.00    +0.000 C 
ATOM      2  C2  UNL     1      18.315  -5.476  -2.177  0.00  0.00    +0.000 C 
ATOM      3  C3  UNL     1      17.765  -5.114  -0.953  0.00  0.00    +0.000 C 
ATOM      4  C4  UNL     1      17.070  -6.072  -0.204  0.00  0.00    +0.000 C 
ATOM      5  C9  UNL     1      16.940  -7.379  -0.696  0.00  0.00    +0.000 C 
ATOM      6  C19 UNL     1      17.518  -7.629  -1.941  0.00  0.00    +0.000 C 
ATOM      7  N1  UNL     1      18.194  -6.721  -2.682  0.00  0.00    +0.000 NA
ENDROOT
BRANCH   5   8
ATOM      8  C10 UNL     1      16.219  -8.480   0.063  0.00  0.00    +0.000 C 
ATOM      9  C11 UNL     1      14.877  -8.877  -0.596  0.00  0.00    +0.000 C 
ATOM     10  C12 UNL     1      15.043 -10.328  -1.029  0.00  0.00    +0.000 C 
ATOM     11  C13 UNL     1      16.003 -10.887   0.002  0.00  0.00    +0.000 C 
ATOM     12  F2  UNL     1      15.332 -11.047   1.172  0.00  0.00    +0.000 F 
ATOM     13  C14 UNL     1      17.047  -9.791   0.156  0.00  0.00    +0.000 C 
BRANCH  13  14
ATOM     14  C15 UNL     1      17.845  -9.905   1.452  0.00  0.00    +0.000 C 
ATOM     15  O1  UNL     1      18.512 -10.912   1.698  0.00  0.00    +0.000 OA
BRANCH  14  16
ATOM     16  C16 UNL     1      17.710  -8.781   2.486  0.00  0.00    +0.000 C 
ATOM     17  C17 UNL     1      19.068  -8.143   2.785  0.00  0.00    +0.000 C 
ATOM     18  C18 UNL     1      17.082  -9.311   3.771  0.00  0.00    +0.000 C 
ENDBRANCH  14  16
ENDBRANCH  13  14
ENDBRANCH   5   8
BRANCH   4  19
ATOM     19  C5  UNL     1      16.493  -5.649   1.076  0.00  0.00    +0.000 C 
ATOM     20  C6  UNL     1      15.220  -5.225   1.156  0.00  0.00    +0.000 C 
BRANCH  20  21
ATOM     21  C7  UNL     1      14.454  -4.751   2.389  0.00  0.00    +0.000 C 
ATOM     22 CL1  UNL     1      15.652  -3.789   3.382  0.00  0.00    +0.000 Cl
ATOM     23 CL2  UNL     1      13.164  -3.549   1.952  0.00  0.00    +0.000 Cl
BRANCH  21  24
ATOM     24  C8  UNL     1      13.844  -5.911   3.246  0.00  0.00    +0.000 C 
ATOM     25  F1  UNL     1      13.838  -7.074   2.532  0.00  0.00    +0.000 F 
ATOM     26 CL3  UNL     1      14.785  -6.216   4.755  0.00  0.00    +0.000 Cl
ATOM     27 CL4  UNL     1      12.141  -5.592   3.752  0.00  0.00    +0.000 Cl
ENDBRANCH  21  24
ENDBRANCH  20  21
ENDBRANCH   4  19
TORSDOF 6
ENDMDL
MODEL 8
REMARK VINA RESULT:    -5.947     22.474     25.763
REMARK INTER + INTRA:         -10.340
REMARK INTER:                  -7.969
REMARK INTRA:                  -2.371
REMARK UNBOUND:                -2.306
REMARK  Name = teste_validacao_ia\MutanteIA_Top2.pdb
REMARK  9 active torsions:
REMARK  status: ('A' for Active; 'I' for Inactive)
REMARK    1  A    between atoms: C1_1  and  C2_2
REMARK    2  A    between atoms: C4_4  and  C5_5
REMARK    3  A    between atoms: C6_6  and  C7_7
REMARK    4  A    between atoms: C7_7  and  C8_10
REMARK    5  A    between atoms: C9_14  and  C10_15
REMARK    6  A    between atoms: C14_20  and  C15_21
REMARK    7  A    between atoms: C15_21  and  C16_23
REMARK    8  A    between atoms: C16_23  and  C17_24
REMARK    9  A    between atoms: C16_23  and  C18_25
REMARK                            x       y       z     vdW  Elec       q    Type
REMARK                         _______ _______ _______ _____ _____    ______ ____
ROOT
ATOM      1  C1  UNL     1      15.308 -11.699  -0.650  0.00  0.00    +0.000 C 
ATOM      2  C2  UNL     1      16.014 -10.585   0.062  0.00  0.00    +0.000 C 
ATOM      3  C3  UNL     1      15.301  -9.715   0.876  0.00  0.00    +0.000 C 
ATOM      4  C4  UNL     1      15.979  -8.676   1.528  0.00  0.00    +0.000 C 
ATOM      5  C9  UNL     1      17.363  -8.529   1.349  0.00  0.00    +0.000 C 
ATOM      6  C19 UNL     1      17.979  -9.467   0.521  0.00  0.00    +0.000 C 
ATOM      7  N1  UNL     1      17.346 -10.477  -0.118  0.00  0.00    +0.000 NA
ENDROOT
BRANCH   5   8
ATOM      8  C10 UNL     1      18.167  -7.419   2.004  0.00  0.00    +0.000 C 
ATOM      9  C11 UNL     1      19.062  -7.933   3.156  0.00  0.00    +0.000 C 
ATOM     10  C12 UNL     1      20.496  -7.675   2.713  0.00  0.00    +0.000 C 
ATOM     11  C13 UNL     1      20.370  -6.437   1.846  0.00  0.00    +0.000 C 
ATOM     12  F2  UNL     1      20.160  -5.366   2.656  0.00  0.00    +0.000 F 
ATOM     13  C14 UNL     1      19.125  -6.704   1.013  0.00  0.00    +0.000 C 
BRANCH  13  14
ATOM     14  C15 UNL     1      18.527  -5.434   0.412  0.00  0.00    +0.000 C 
ATOM     15  O1  UNL     1      19.183  -4.728  -0.357  0.00  0.00    +0.000 OA
BRANCH  14  16
ATOM     16  C16 UNL     1      17.130  -5.004   0.873  0.00  0.00    +0.000 C 
ATOM     17  C17 UNL     1      16.370  -4.304  -0.254  0.00  0.00    +0.000 C 
ATOM     18  C18 UNL     1      17.228  -4.090   2.092  0.00  0.00    +0.000 C 
ENDBRANCH  14  16
ENDBRANCH  13  14
ENDBRANCH   5   8
BRANCH   4  19
ATOM     19  C5  UNL     1      15.195  -7.785   2.390  0.00  0.00    +0.000 C 
ATOM     20  C6  UNL     1      14.309  -6.920   1.870  0.00  0.00    +0.000 C 
BRANCH  20  21
ATOM     21  C7  UNL     1      13.411  -5.925   2.602  0.00  0.00    +0.000 C 
ATOM     22 CL1  UNL     1      14.038  -5.858   4.320  0.00  0.00    +0.000 Cl
ATOM     23 CL2  UNL     1      13.636  -4.236   1.974  0.00  0.00    +0.000 Cl
BRANCH  21  24
ATOM     24  C8  UNL     1      11.893  -6.309   2.592  0.00  0.00    +0.000 C 
ATOM     25  F1  UNL     1      11.401  -6.323   3.865  0.00  0.00    +0.000 F 
ATOM     26 CL3  UNL     1      10.896  -5.139   1.647  0.00  0.00    +0.000 Cl
ATOM     27 CL4  UNL     1      11.584  -7.942   1.888  0.00  0.00    +0.000 Cl
ENDBRANCH  21  24
ENDBRANCH  20  21
ENDBRANCH   4  19
TORSDOF 6
ENDMDL
MODEL 9
REMARK VINA RESULT:    -5.940     24.233     26.742
REMARK INTER + INTRA:         -10.330
REMARK INTER:                  -7.800
REMARK INTRA:                  -2.530
REMARK UNBOUND:                -2.306
REMARK  Name = teste_validacao_ia\MutanteIA_Top2.pdb
REMARK  9 active torsions:
REMARK  status: ('A' for Active; 'I' for Inactive)
REMARK    1  A    between atoms: C1_1  and  C2_2
REMARK    2  A    between atoms: C4_4  and  C5_5
REMARK    3  A    between atoms: C6_6  and  C7_7
REMARK    4  A    between atoms: C7_7  and  C8_10
REMARK    5  A    between atoms: C9_14  and  C10_15
REMARK    6  A    between atoms: C14_20  and  C15_21
REMARK    7  A    between atoms: C15_21  and  C16_23
REMARK    8  A    between atoms: C16_23  and  C17_24
REMARK    9  A    between atoms: C16_23  and  C18_25
REMARK                            x       y       z     vdW  Elec       q    Type
REMARK                         _______ _______ _______ _____ _____    ______ ____
ROOT
ATOM      1  C1  UNL     1      18.340  -8.683  -5.029  0.00  0.00    +0.000 C 
ATOM      2  C2  UNL     1      17.547  -8.728  -3.759  0.00  0.00    +0.000 C 
ATOM      3  C3  UNL     1      17.698  -7.730  -2.806  0.00  0.00    +0.000 C 
ATOM      4  C4  UNL     1      16.951  -7.794  -1.622  0.00  0.00    +0.000 C 
ATOM      5  C9  UNL     1      16.066  -8.863  -1.416  0.00  0.00    +0.000 C 
ATOM      6  C19 UNL     1      15.983  -9.801  -2.445  0.00  0.00    +0.000 C 
ATOM      7  N1  UNL     1      16.693  -9.760  -3.595  0.00  0.00    +0.000 NA
ENDROOT
BRANCH   5   8
ATOM      8  C10 UNL     1      15.235  -9.016  -0.153  0.00  0.00    +0.000 C 
ATOM      9  C11 UNL     1      13.721  -9.131  -0.447  0.00  0.00    +0.000 C 
ATOM     10  C12 UNL     1      13.313 -10.519   0.027  0.00  0.00    +0.000 C 
ATOM     11  C13 UNL     1      14.263 -10.784   1.178  0.00  0.00    +0.000 C 
ATOM     12  F2  UNL     1      13.872 -10.030   2.239  0.00  0.00    +0.000 F 
ATOM     13  C14 UNL     1      15.604 -10.285   0.661  0.00  0.00    +0.000 C 
BRANCH  13  14
ATOM     14  C15 UNL     1      16.609 -10.010   1.778  0.00  0.00    +0.000 C 
ATOM     15  O1  UNL     1      17.107 -10.936   2.422  0.00  0.00    +0.000 OA
BRANCH  14  16
ATOM     16  C16 UNL     1      16.899  -8.551   2.147  0.00  0.00    +0.000 C 
ATOM     17  C17 UNL     1      18.389  -8.337   2.414  0.00  0.00    +0.000 C 
ATOM     18  C18 UNL     1      16.079  -8.136   3.366  0.00  0.00    +0.000 C 
ENDBRANCH  14  16
ENDBRANCH  13  14
ENDBRANCH   5   8
BRANCH   4  19
ATOM     19  C5  UNL     1      17.128  -6.715  -0.644  0.00  0.00    +0.000 C 
ATOM     20  C6  UNL     1      16.161  -5.805  -0.434  0.00  0.00    +0.000 C 
BRANCH  20  21
ATOM     21  C7  UNL     1      16.165  -4.624   0.533  0.00  0.00    +0.000 C 
ATOM     22 CL1  UNL     1      17.713  -4.772   1.496  0.00  0.00    +0.000 Cl
ATOM     23 CL2  UNL     1      16.329  -3.043  -0.345  0.00  0.00    +0.000 Cl
BRANCH  21  24
ATOM     24  C8  UNL     1      14.929  -4.583   1.495  0.00  0.00    +0.000 C 
ATOM     25  F1  UNL     1      14.141  -3.506   1.207  0.00  0.00    +0.000 F 
ATOM     26 CL3  UNL     1      13.896  -6.055   1.347  0.00  0.00    +0.000 Cl
ATOM     27 CL4  UNL     1      15.394  -4.449   3.233  0.00  0.00    +0.000 Cl
ENDBRANCH  21  24
ENDBRANCH  20  21
ENDBRANCH   4  19
TORSDOF 6
ENDMDL
