MODEL 2
REMARK VINA RESULT:    -4.949      1.928      3.218
REMARK INTER + INTRA:          -6.009
REMARK INTER:                  -5.761
REMARK INTRA:                  -0.249
REMARK UNBOUND:                -0.047
REMARK  Name = ALL
REMARK  6 active torsions:
REMARK  status: ('A' for Active; 'I' for Inactive)
REMARK    1  A    between atoms: C_1  and  O_7
REMARK    2  A    between atoms: C_2  and  O_8
REMARK    3  A    between atoms: C_3  and  O_9
REMARK    4  A    between atoms: C_4  and  O_10
REMARK    5  A    between atoms: C_5  and  C_6
REMARK    6  A    between atoms: C_6  and  O_12
REMARK                            x       y       z     vdW  Elec       q    Type
REMARK                         _______ _______ _______ _____ _____    ______ ____
ROOT
ATOM      1  C   UNL     1       8.711  12.812  19.846  0.00  0.00    +0.279 C 
ATOM      2  C   UNL     1       7.617  13.882  19.660  0.00  0.00    +0.201 C 
ATOM      3  C   UNL     1       6.214  13.241  19.669  0.00  0.00    +0.179 C 
ATOM      4  C   UNL     1       6.166  11.988  18.764  0.00  0.00    +0.177 C 
ATOM      5  C   UNL     1       7.393  11.075  19.017  0.00  0.00    +0.178 C 
ATOM      6  O   UNL     1       8.592  11.813  18.849  0.00  0.00    -0.341 OA
ENDROOT
BRANCH   1   7
ATOM      7  O   UNL     1       9.967  13.423  19.722  0.00  0.00    -0.365 OA
ATOM      8  H   UNL     1      10.146  13.875  20.587  0.00  0.00    +0.213 HD
ENDBRANCH   1   7
BRANCH   2   9
ATOM      9  O   UNL     1       7.698  14.848  20.677  0.00  0.00    -0.384 OA
ATOM     10  H   UNL     1       8.534  15.361  20.524  0.00  0.00    +0.210 HD
ENDBRANCH   2   9
BRANCH   3  11
ATOM     11  O   UNL     1       5.777  12.957  20.977  0.00  0.00    -0.386 OA
ATOM     12  H   UNL     1       4.791  13.047  21.005  0.00  0.00    +0.210 HD
ENDBRANCH   3  11
BRANCH   4  13
ATOM     13  O   UNL     1       4.977  11.276  18.994  0.00  0.00    -0.386 OA
ATOM     14  H   UNL     1       4.649  11.549  19.891  0.00  0.00    +0.210 HD
ENDBRANCH   4  13
BRANCH   5  15
ATOM     15  C   UNL     1       7.425   9.898  18.032  0.00  0.00    +0.190 C 
BRANCH  15  16
ATOM     16  O   UNL     1       6.803  10.249  16.827  0.00  0.00    -0.392 OA
ATOM     17  H   UNL     1       7.483  10.112  16.117  0.00  0.00    +0.210 HD
ENDBRANCH  15  16
ENDBRANCH   5  15
TORSDOF 6
ENDMDL
