MODEL 5
REMARK VINA RESULT:    -4.884      2.236      3.949
REMARK INTER + INTRA:          -5.931
REMARK INTER:                  -5.720
REMARK INTRA:                  -0.211
REMARK UNBOUND:                -0.047
REMARK  Name = ALL
REMARK  6 active torsions:
REMARK  status: ('A' for Active; 'I' for Inactive)
REMARK    1  A    between atoms: C_1  and  O_7
REMARK    2  A    between atoms: C_2  and  O_8
REMARK    3  A    between atoms: C_3  and  O_9
REMARK    4  A    between atoms: C_4  and  O_10
REMARK    5  A    between atoms: C_5  and  C_6
REMARK    6  A    between atoms: C_6  and  O_12
REMARK                            x       y       z     vdW  Elec       q    Type
REMARK                         _______ _______ _______ _____ _____    ______ ____
ROOT
ATOM      1  C   UNL     1       8.916   9.877  19.517  0.00  0.00    +0.279 C 
ATOM      2  C   UNL     1       8.835  11.404  19.314  0.00  0.00    +0.201 C 
ATOM      3  C   UNL     1       7.377  11.896  19.424  0.00  0.00    +0.179 C 
ATOM      4  C   UNL     1       6.421  11.001  18.601  0.00  0.00    +0.177 C 
ATOM      5  C   UNL     1       6.712   9.500  18.854  0.00  0.00    +0.178 C 
ATOM      6  O   UNL     1       8.076   9.216  18.589  0.00  0.00    -0.341 OA
ENDROOT
BRANCH   1   7
ATOM      7  O   UNL     1      10.238   9.463  19.300  0.00  0.00    -0.365 OA
ATOM      8  H   UNL     1      10.717   9.590  20.160  0.00  0.00    +0.213 HD
ENDBRANCH   1   7
BRANCH   2   9
ATOM      9  O   UNL     1       9.627  12.067  20.266  0.00  0.00    -0.384 OA
ATOM     10  H   UNL     1      10.558  11.746  20.143  0.00  0.00    +0.210 HD
ENDBRANCH   2   9
BRANCH   3  11
ATOM     11  O   UNL     1       6.962  12.006  20.765  0.00  0.00    -0.386 OA
ATOM     12  H   UNL     1       5.982  12.148  20.779  0.00  0.00    +0.210 HD
ENDBRANCH   3  11
BRANCH   4  13
ATOM     13  O   UNL     1       5.087  11.299  18.926  0.00  0.00    -0.386 OA
ATOM     14  H   UNL     1       5.090  11.639  19.859  0.00  0.00    +0.210 HD
ENDBRANCH   4  13
BRANCH   5  15
ATOM     15  C   UNL     1       5.860   8.605  17.943  0.00  0.00    +0.190 C 
BRANCH  15  16
ATOM     16  O   UNL     1       4.502   8.720  18.271  0.00  0.00    -0.392 OA
ATOM     17  H   UNL     1       4.301   9.692  18.272  0.00  0.00    +0.210 HD
ENDBRANCH  15  16
ENDBRANCH   5  15
TORSDOF 6
ENDMDL
