MODEL 10
REMARK VINA RESULT:    -4.674      1.879      4.141
REMARK INTER + INTRA:          -5.678
REMARK INTER:                  -5.431
REMARK INTRA:                  -0.247
REMARK UNBOUND:                -0.047
REMARK  Name = ALL
REMARK  6 active torsions:
REMARK  status: ('A' for Active; 'I' for Inactive)
REMARK    1  A    between atoms: C_1  and  O_7
REMARK    2  A    between atoms: C_2  and  O_8
REMARK    3  A    between atoms: C_3  and  O_9
REMARK    4  A    between atoms: C_4  and  O_10
REMARK    5  A    between atoms: C_5  and  C_6
REMARK    6  A    between atoms: C_6  and  O_12
REMARK                            x       y       z     vdW  Elec       q    Type
REMARK                         _______ _______ _______ _____ _____    ______ ____
ROOT
ATOM      1  C   UNL     1       7.747  11.275  18.097  0.00  0.00    +0.279 C 
ATOM      2  C   UNL     1       9.074  12.021  18.342  0.00  0.00    +0.201 C 
ATOM      3  C   UNL     1       8.937  13.013  19.516  0.00  0.00    +0.179 C 
ATOM      4  C   UNL     1       7.644  13.851  19.392  0.00  0.00    +0.177 C 
ATOM      5  C   UNL     1       6.431  12.951  19.047  0.00  0.00    +0.178 C 
ATOM      6  O   UNL     1       6.700  12.201  17.873  0.00  0.00    -0.341 OA
ENDROOT
BRANCH   1   7
ATOM      7  O   UNL     1       7.886  10.469  16.958  0.00  0.00    -0.365 OA
ATOM      8  H   UNL     1       7.873  11.082  16.177  0.00  0.00    +0.213 HD
ENDBRANCH   1   7
BRANCH   2   9
ATOM      9  O   UNL     1      10.106  11.109  18.617  0.00  0.00    -0.384 OA
ATOM     10  H   UNL     1       9.965  10.781  19.543  0.00  0.00    +0.210 HD
ENDBRANCH   2   9
BRANCH   3  11
ATOM     11  O   UNL     1       9.020  12.363  20.762  0.00  0.00    -0.386 OA
ATOM     12  H   UNL     1       8.517  11.512  20.706  0.00  0.00    +0.210 HD
ENDBRANCH   3  11
BRANCH   4  13
ATOM     13  O   UNL     1       7.406  14.545  20.590  0.00  0.00    -0.386 OA
ATOM     14  H   UNL     1       6.456  14.383  20.831  0.00  0.00    +0.210 HD
ENDBRANCH   4  13
BRANCH   5  15
ATOM     15  C   UNL     1       5.169  13.788  18.791  0.00  0.00    +0.190 C 
BRANCH  15  16
ATOM     16  O   UNL     1       5.508  15.127  18.558  0.00  0.00    -0.392 OA
ATOM     17  H   UNL     1       4.687  15.562  18.210  0.00  0.00    +0.210 HD
ENDBRANCH  15  16
ENDBRANCH   5  15
TORSDOF 6
ENDMDL
