MODEL 8
REMARK VINA RESULT:    -4.789      1.435      2.917
REMARK INTER + INTRA:          -5.816
REMARK INTER:                  -5.574
REMARK INTRA:                  -0.243
REMARK UNBOUND:                -0.047
REMARK  Name = ALL
REMARK  6 active torsions:
REMARK  status: ('A' for Active; 'I' for Inactive)
REMARK    1  A    between atoms: C_1  and  O_7
REMARK    2  A    between atoms: C_2  and  O_8
REMARK    3  A    between atoms: C_3  and  O_9
REMARK    4  A    between atoms: C_4  and  O_10
REMARK    5  A    between atoms: C_5  and  C_6
REMARK    6  A    between atoms: C_6  and  O_12
REMARK                            x       y       z     vdW  Elec       q    Type
REMARK                         _______ _______ _______ _____ _____    ______ ____
ROOT
ATOM      1  C   UNL     1       7.591  14.361  17.999  0.00  0.00    +0.279 C 
ATOM      2  C   UNL     1       6.112  14.013  18.260  0.00  0.00    +0.201 C 
ATOM      3  C   UNL     1       5.989  12.898  19.319  0.00  0.00    +0.179 C 
ATOM      4  C   UNL     1       6.968  11.738  19.026  0.00  0.00    +0.177 C 
ATOM      5  C   UNL     1       8.381  12.277  18.688  0.00  0.00    +0.178 C 
ATOM      6  O   UNL     1       8.306  13.201  17.614  0.00  0.00    -0.341 OA
ENDROOT
BRANCH   1   7
ATOM      7  O   UNL     1       7.658  15.296  16.956  0.00  0.00    -0.365 OA
ATOM      8  H   UNL     1       8.609  15.571  16.886  0.00  0.00    +0.213 HD
ENDBRANCH   1   7
BRANCH   2   9
ATOM      9  O   UNL     1       5.409  15.150  18.692  0.00  0.00    -0.384 OA
ATOM     10  H   UNL     1       4.729  14.839  19.344  0.00  0.00    +0.210 HD
ENDBRANCH   2   9
BRANCH   3  11
ATOM     11  O   UNL     1       6.149  13.398  20.626  0.00  0.00    -0.386 OA
ATOM     12  H   UNL     1       5.253  13.611  20.991  0.00  0.00    +0.210 HD
ENDBRANCH   3  11
BRANCH   4  13
ATOM     13  O   UNL     1       7.031  10.873  20.132  0.00  0.00    -0.386 OA
ATOM     14  H   UNL     1       6.135  10.891  20.560  0.00  0.00    +0.210 HD
ENDBRANCH   4  13
BRANCH   5  15
ATOM     15  C   UNL     1       9.325  11.142  18.267  0.00  0.00    +0.190 C 
BRANCH  15  16
ATOM     16  O   UNL     1       9.904  10.542  19.392  0.00  0.00    -0.392 OA
ATOM     17  H   UNL     1      10.504   9.830  19.047  0.00  0.00    +0.210 HD
ENDBRANCH  15  16
ENDBRANCH   5  15
TORSDOF 6
ENDMDL
