MODEL 20
REMARK VINA RESULT:    -4.506      2.128      4.330
REMARK INTER + INTRA:          -5.475
REMARK INTER:                  -5.251
REMARK INTRA:                  -0.224
REMARK UNBOUND:                -0.047
REMARK  Name = ALL
REMARK  6 active torsions:
REMARK  status: ('A' for Active; 'I' for Inactive)
REMARK    1  A    between atoms: C_1  and  O_7
REMARK    2  A    between atoms: C_2  and  O_8
REMARK    3  A    between atoms: C_3  and  O_9
REMARK    4  A    between atoms: C_4  and  O_10
REMARK    5  A    between atoms: C_5  and  C_6
REMARK    6  A    between atoms: C_6  and  O_12
REMARK                            x       y       z     vdW  Elec       q    Type
REMARK                         _______ _______ _______ _____ _____    ______ ____
ROOT
ATOM      1  C   UNL     1       9.115  11.375  17.857  0.00  0.00    +0.279 C 
ATOM      2  C   UNL     1       8.645   9.908  17.796  0.00  0.00    +0.201 C 
ATOM      3  C   UNL     1       7.105   9.825  17.761  0.00  0.00    +0.179 C 
ATOM      4  C   UNL     1       6.471  10.748  18.826  0.00  0.00    +0.177 C 
ATOM      5  C   UNL     1       7.132  12.150  18.810  0.00  0.00    +0.178 C 
ATOM      6  O   UNL     1       8.536  12.028  18.972  0.00  0.00    -0.341 OA
ENDROOT
BRANCH   1   7
ATOM      7  O   UNL     1      10.510  11.397  17.999  0.00  0.00    -0.365 OA
ATOM      8  H   UNL     1      10.811  12.284  17.672  0.00  0.00    +0.213 HD
ENDBRANCH   1   7
BRANCH   2   9
ATOM      9  O   UNL     1       9.176   9.269  16.663  0.00  0.00    -0.384 OA
ATOM     10  H   UNL     1       8.407   8.925  16.138  0.00  0.00    +0.210 HD
ENDBRANCH   2   9
BRANCH   3  11
ATOM     11  O   UNL     1       6.597  10.088  16.473  0.00  0.00    -0.386 OA
ATOM     12  H   UNL     1       6.187  10.989  16.477  0.00  0.00    +0.210 HD
ENDBRANCH   3  11
BRANCH   4  13
ATOM     13  O   UNL     1       5.089  10.861  18.600  0.00  0.00    -0.386 OA
ATOM     14  H   UNL     1       4.655  10.893  19.493  0.00  0.00    +0.210 HD
ENDBRANCH   4  13
BRANCH   5  15
ATOM     15  C   UNL     1       6.602  13.030  19.951  0.00  0.00    +0.190 C 
BRANCH  15  16
ATOM     16  O   UNL     1       6.356  12.257  21.093  0.00  0.00    -0.392 OA
ATOM     17  H   UNL     1       6.250  12.899  21.842  0.00  0.00    +0.210 HD
ENDBRANCH  15  16
ENDBRANCH   5  15
TORSDOF 6
ENDMDL
