MODEL 12
REMARK VINA RESULT:    -4.635      2.000      3.158
REMARK INTER + INTRA:          -5.631
REMARK INTER:                  -5.583
REMARK INTRA:                  -0.048
REMARK UNBOUND:                -0.047
REMARK  Name = ALL
REMARK  6 active torsions:
REMARK  status: ('A' for Active; 'I' for Inactive)
REMARK    1  A    between atoms: C_1  and  O_7
REMARK    2  A    between atoms: C_2  and  O_8
REMARK    3  A    between atoms: C_3  and  O_9
REMARK    4  A    between atoms: C_4  and  O_10
REMARK    5  A    between atoms: C_5  and  C_6
REMARK    6  A    between atoms: C_6  and  O_12
REMARK                            x       y       z     vdW  Elec       q    Type
REMARK                         _______ _______ _______ _____ _____    ______ ____
ROOT
ATOM      1  C   UNL     1       7.238  11.633  19.358  0.00  0.00    +0.279 C 
ATOM      2  C   UNL     1       5.906  12.385  19.550  0.00  0.00    +0.201 C 
ATOM      3  C   UNL     1       6.015  13.837  19.039  0.00  0.00    +0.179 C 
ATOM      4  C   UNL     1       7.310  14.512  19.545  0.00  0.00    +0.177 C 
ATOM      5  C   UNL     1       8.531  13.575  19.363  0.00  0.00    +0.178 C 
ATOM      6  O   UNL     1       8.290  12.331  20.000  0.00  0.00    -0.341 OA
ENDROOT
BRANCH   1   7
ATOM      7  O   UNL     1       7.126  10.361  19.935  0.00  0.00    -0.365 OA
ATOM      8  H   UNL     1       6.357  10.403  20.561  0.00  0.00    +0.213 HD
ENDBRANCH   1   7
BRANCH   2   9
ATOM      9  O   UNL     1       4.868  11.725  18.871  0.00  0.00    -0.384 OA
ATOM     10  H   UNL     1       4.020  11.988  19.314  0.00  0.00    +0.210 HD
ENDBRANCH   2   9
BRANCH   3  11
ATOM     11  O   UNL     1       5.904  13.906  17.636  0.00  0.00    -0.386 OA
ATOM     12  H   UNL     1       5.488  14.773  17.398  0.00  0.00    +0.210 HD
ENDBRANCH   3  11
BRANCH   4  13
ATOM     13  O   UNL     1       7.520  15.720  18.859  0.00  0.00    -0.386 OA
ATOM     14  H   UNL     1       7.184  16.446  19.449  0.00  0.00    +0.210 HD
ENDBRANCH   4  13
BRANCH   5  15
ATOM     15  C   UNL     1       9.798  14.183  19.983  0.00  0.00    +0.190 C 
BRANCH  15  16
ATOM     16  O   UNL     1      10.162  13.481  21.140  0.00  0.00    -0.392 OA
ATOM     17  H   UNL     1       9.421  12.847  21.323  0.00  0.00    +0.210 HD
ENDBRANCH  15  16
ENDBRANCH   5  15
TORSDOF 6
ENDMDL
