MODEL 13
REMARK VINA RESULT:    -4.630      1.888      3.354
REMARK INTER + INTRA:          -5.624
REMARK INTER:                  -5.425
REMARK INTRA:                  -0.199
REMARK UNBOUND:                -0.047
REMARK  Name = ALL
REMARK  6 active torsions:
REMARK  status: ('A' for Active; 'I' for Inactive)
REMARK    1  A    between atoms: C_1  and  O_7
REMARK    2  A    between atoms: C_2  and  O_8
REMARK    3  A    between atoms: C_3  and  O_9
REMARK    4  A    between atoms: C_4  and  O_10
REMARK    5  A    between atoms: C_5  and  C_6
REMARK    6  A    between atoms: C_6  and  O_12
REMARK                            x       y       z     vdW  Elec       q    Type
REMARK                         _______ _______ _______ _____ _____    ______ ____
ROOT
ATOM      1  C   UNL     1       5.927  12.242  19.350  0.00  0.00    +0.279 C 
ATOM      2  C   UNL     1       6.087  10.987  18.469  0.00  0.00    +0.201 C 
ATOM      3  C   UNL     1       7.350  10.194  18.865  0.00  0.00    +0.179 C 
ATOM      4  C   UNL     1       8.570  11.129  19.027  0.00  0.00    +0.177 C 
ATOM      5  C   UNL     1       8.200  12.385  19.857  0.00  0.00    +0.178 C 
ATOM      6  O   UNL     1       7.090  13.046  19.271  0.00  0.00    -0.341 OA
ENDROOT
BRANCH   1   7
ATOM      7  O   UNL     1       4.835  12.986  18.884  0.00  0.00    -0.365 OA
ATOM      8  H   UNL     1       4.189  12.332  18.509  0.00  0.00    +0.213 HD
ENDBRANCH   1   7
BRANCH   2   9
ATOM      9  O   UNL     1       4.958  10.160  18.584  0.00  0.00    -0.384 OA
ATOM     10  H   UNL     1       4.391  10.331  17.787  0.00  0.00    +0.210 HD
ENDBRANCH   2   9
BRANCH   3  11
ATOM     11  O   UNL     1       7.135   9.412  20.017  0.00  0.00    -0.386 OA
ATOM     12  H   UNL     1       7.458   8.493  19.837  0.00  0.00    +0.210 HD
ENDBRANCH   3  11
BRANCH   4  13
ATOM     13  O   UNL     1       9.627  10.436  19.641  0.00  0.00    -0.386 OA
ATOM     14  H   UNL     1       9.638  10.718  20.593  0.00  0.00    +0.210 HD
ENDBRANCH   4  13
BRANCH   5  15
ATOM     15  C   UNL     1       9.366  13.382  19.910  0.00  0.00    +0.190 C 
BRANCH  15  16
ATOM     16  O   UNL     1      10.102  13.214  21.090  0.00  0.00    -0.392 OA
ATOM     17  H   UNL     1       9.691  13.821  21.759  0.00  0.00    +0.210 HD
ENDBRANCH  15  16
ENDBRANCH   5  15
TORSDOF 6
ENDMDL
