MODEL 19
REMARK VINA RESULT:    -4.536      6.820      9.088
REMARK INTER + INTRA:          -5.512
REMARK INTER:                  -5.271
REMARK INTRA:                  -0.241
REMARK UNBOUND:                -0.047
REMARK  Name = ALL
REMARK  6 active torsions:
REMARK  status: ('A' for Active; 'I' for Inactive)
REMARK    1  A    between atoms: C_1  and  O_7
REMARK    2  A    between atoms: C_2  and  O_8
REMARK    3  A    between atoms: C_3  and  O_9
REMARK    4  A    between atoms: C_4  and  O_10
REMARK    5  A    between atoms: C_5  and  C_6
REMARK    6  A    between atoms: C_6  and  O_12
REMARK                            x       y       z     vdW  Elec       q    Type
REMARK                         _______ _______ _______ _____ _____    ______ ____
ROOT
ATOM      1  C   UNL     1       9.696  17.108  13.626  0.00  0.00    +0.279 C 
ATOM      2  C   UNL     1       9.167  17.109  15.074  0.00  0.00    +0.201 C 
ATOM      3  C   UNL     1       8.950  18.550  15.579  0.00  0.00    +0.179 C 
ATOM      4  C   UNL     1      10.164  19.448  15.248  0.00  0.00    +0.177 C 
ATOM      5  C   UNL     1      10.621  19.244  13.781  0.00  0.00    +0.178 C 
ATOM      6  O   UNL     1      10.886  17.871  13.540  0.00  0.00    -0.341 OA
ENDROOT
BRANCH   1   7
ATOM      7  O   UNL     1       9.983  15.787  13.251  0.00  0.00    -0.365 OA
ATOM      8  H   UNL     1      10.416  15.360  14.034  0.00  0.00    +0.213 HD
ENDBRANCH   1   7
BRANCH   2   9
ATOM      9  O   UNL     1       7.960  16.396  15.156  0.00  0.00    -0.384 OA
ATOM     10  H   UNL     1       7.689  16.392  16.111  0.00  0.00    +0.210 HD
ENDBRANCH   2   9
BRANCH   3  11
ATOM     11  O   UNL     1       7.747  19.098  15.091  0.00  0.00    -0.386 OA
ATOM     12  H   UNL     1       7.236  19.463  15.857  0.00  0.00    +0.210 HD
ENDBRANCH   3  11
BRANCH   4  13
ATOM     13  O   UNL     1       9.838  20.796  15.471  0.00  0.00    -0.386 OA
ATOM     14  H   UNL     1       9.432  20.846  16.377  0.00  0.00    +0.210 HD
ENDBRANCH   4  13
BRANCH   5  15
ATOM     15  C   UNL     1      11.906  20.030  13.483  0.00  0.00    +0.190 C 
BRANCH  15  16
ATOM     16  O   UNL     1      11.621  21.392  13.317  0.00  0.00    -0.392 OA
ATOM     17  H   UNL     1      10.920  21.443  12.616  0.00  0.00    +0.210 HD
ENDBRANCH  15  16
ENDBRANCH   5  15
TORSDOF 6
ENDMDL
