MODEL 13
REMARK VINA RESULT:    -3.266      7.980      8.845
REMARK INTER + INTRA:          -3.631
REMARK INTER:                  -3.728
REMARK INTRA:                   0.097
REMARK UNBOUND:                 0.112
REMARK  Name = BET
REMARK  6 active torsions:
REMARK  status: ('A' for Active; 'I' for Inactive)
REMARK    1  A    between atoms: N_1  and  C_2
REMARK    2  A    between atoms: N_1  and  C_6
REMARK    3  A    between atoms: N_1  and  C_7
REMARK    4  A    between atoms: N_1  and  C_8
REMARK    5  A    between atoms: C_2  and  C_3
REMARK    6  A    between atoms: C_3  and  O_5
REMARK                            x       y       z     vdW  Elec       q    Type
REMARK                         _______ _______ _______ _____ _____    ______ ____
ROOT
ATOM      1  C   UNL     1      83.020  18.191  61.762  0.00  0.00    +0.046 C 
ENDROOT
BRANCH   1   2
ATOM      2  N   UNL     1      82.184  17.759  62.920  0.00  0.00    +0.381 N 
ATOM      3  C   UNL     1      82.670  18.365  64.182  0.00  0.00    -0.092 C 
ATOM      4  C   UNL     1      80.761  18.119  62.711  0.00  0.00    -0.092 C 
ATOM      5  C   UNL     1      82.283  16.283  63.039  0.00  0.00    -0.092 C 
ENDBRANCH   1   2
BRANCH   1   6
ATOM      6  C   UNL     1      83.441  19.637  61.818  0.00  0.00    +0.288 C 
ATOM      7  O   UNL     1      82.624  20.547  61.514  0.00  0.00    -0.253 OA
BRANCH   6   8
ATOM      8  O   UNL     1      84.736  19.969  62.204  0.00  0.00    -0.482 OA
ATOM      9  H   UNL     1      85.013  20.938  62.315  0.00  0.00    +0.295 HD
ENDBRANCH   6   8
ENDBRANCH   1   6
TORSDOF 3
ENDMDL
