MODEL 15
REMARK VINA RESULT:    -3.235      7.341      8.078
REMARK INTER + INTRA:          -3.596
REMARK INTER:                  -3.764
REMARK INTRA:                   0.169
REMARK UNBOUND:                 0.112
REMARK  Name = BET
REMARK  6 active torsions:
REMARK  status: ('A' for Active; 'I' for Inactive)
REMARK    1  A    between atoms: N_1  and  C_2
REMARK    2  A    between atoms: N_1  and  C_6
REMARK    3  A    between atoms: N_1  and  C_7
REMARK    4  A    between atoms: N_1  and  C_8
REMARK    5  A    between atoms: C_2  and  C_3
REMARK    6  A    between atoms: C_3  and  O_5
REMARK                            x       y       z     vdW  Elec       q    Type
REMARK                         _______ _______ _______ _____ _____    ______ ____
ROOT
ATOM      1  C   UNL     1      81.097  17.894  62.708  0.00  0.00    +0.046 C 
ENDROOT
BRANCH   1   2
ATOM      2  N   UNL     1      82.203  17.155  62.033  0.00  0.00    +0.381 N 
ATOM      3  C   UNL     1      81.866  16.870  60.617  0.00  0.00    -0.092 C 
ATOM      4  C   UNL     1      83.471  17.920  62.098  0.00  0.00    -0.092 C 
ATOM      5  C   UNL     1      82.396  15.863  62.738  0.00  0.00    -0.092 C 
ENDBRANCH   1   2
BRANCH   1   6
ATOM      6  C   UNL     1      81.567  18.916  63.711  0.00  0.00    +0.288 C 
ATOM      7  O   UNL     1      81.451  20.147  63.464  0.00  0.00    -0.253 OA
BRANCH   6   8
ATOM      8  O   UNL     1      82.136  18.501  64.911  0.00  0.00    -0.482 OA
ATOM      9  H   UNL     1      82.798  17.734  64.934  0.00  0.00    +0.295 HD
ENDBRANCH   6   8
ENDBRANCH   1   6
TORSDOF 3
ENDMDL
