MODEL 9
REMARK VINA RESULT:    -3.307      2.504      3.213
REMARK INTER + INTRA:          -3.678
REMARK INTER:                  -3.841
REMARK INTRA:                   0.163
REMARK UNBOUND:                 0.112
REMARK  Name = BET
REMARK  6 active torsions:
REMARK  status: ('A' for Active; 'I' for Inactive)
REMARK    1  A    between atoms: N_1  and  C_2
REMARK    2  A    between atoms: N_1  and  C_6
REMARK    3  A    between atoms: N_1  and  C_7
REMARK    4  A    between atoms: N_1  and  C_8
REMARK    5  A    between atoms: C_2  and  C_3
REMARK    6  A    between atoms: C_3  and  O_5
REMARK                            x       y       z     vdW  Elec       q    Type
REMARK                         _______ _______ _______ _____ _____    ______ ____
ROOT
ATOM      1  C   UNL     1      73.125  20.886  61.948  0.00  0.00    +0.046 C 
ENDROOT
BRANCH   1   2
ATOM      2  N   UNL     1      74.581  20.706  62.223  0.00  0.00    +0.381 N 
ATOM      3  C   UNL     1      75.403  21.484  61.266  0.00  0.00    -0.092 C 
ATOM      4  C   UNL     1      74.914  21.112  63.609  0.00  0.00    -0.092 C 
ATOM      5  C   UNL     1      74.909  19.268  62.062  0.00  0.00    -0.092 C 
ENDBRANCH   1   2
BRANCH   1   6
ATOM      6  C   UNL     1      72.788  20.985  60.482  0.00  0.00    +0.288 C 
ATOM      7  O   UNL     1      72.623  22.113  59.945  0.00  0.00    -0.253 OA
BRANCH   6   8
ATOM      8  O   UNL     1      72.654  19.828  59.721  0.00  0.00    -0.482 OA
ATOM      9  H   UNL     1      72.521  19.879  58.717  0.00  0.00    +0.295 HD
ENDBRANCH   6   8
ENDBRANCH   1   6
TORSDOF 3
ENDMDL
