MODEL 18
REMARK VINA RESULT:    -3.132      7.297      8.004
REMARK INTER + INTRA:          -3.478
REMARK INTER:                  -3.615
REMARK INTRA:                   0.137
REMARK UNBOUND:                 0.112
REMARK  Name = BET
REMARK  6 active torsions:
REMARK  status: ('A' for Active; 'I' for Inactive)
REMARK    1  A    between atoms: N_1  and  C_2
REMARK    2  A    between atoms: N_1  and  C_6
REMARK    3  A    between atoms: N_1  and  C_7
REMARK    4  A    between atoms: N_1  and  C_8
REMARK    5  A    between atoms: C_2  and  C_3
REMARK    6  A    between atoms: C_3  and  O_5
REMARK                            x       y       z     vdW  Elec       q    Type
REMARK                         _______ _______ _______ _____ _____    ______ ____
ROOT
ATOM      1  C   UNL     1      81.814  19.923  62.950  0.00  0.00    +0.046 C 
ENDROOT
BRANCH   1   2
ATOM      2  N   UNL     1      82.612  19.760  61.699  0.00  0.00    +0.381 N 
ATOM      3  C   UNL     1      83.451  20.955  61.445  0.00  0.00    -0.092 C 
ATOM      4  C   UNL     1      83.471  18.554  61.770  0.00  0.00    -0.092 C 
ATOM      5  C   UNL     1      81.669  19.599  60.565  0.00  0.00    -0.092 C 
ENDBRANCH   1   2
BRANCH   1   6
ATOM      6  C   UNL     1      81.535  18.628  63.670  0.00  0.00    +0.288 C 
ATOM      7  O   UNL     1      80.629  17.856  63.255  0.00  0.00    -0.253 OA
BRANCH   6   8
ATOM      8  O   UNL     1      82.275  18.286  64.797  0.00  0.00    -0.482 OA
ATOM      9  H   UNL     1      82.671  19.002  65.395  0.00  0.00    +0.295 HD
ENDBRANCH   6   8
ENDBRANCH   1   6
TORSDOF 3
ENDMDL
