MODEL 16
REMARK VINA RESULT:    -3.208      7.973      8.745
REMARK INTER + INTRA:          -3.565
REMARK INTER:                  -3.664
REMARK INTRA:                   0.099
REMARK UNBOUND:                 0.112
REMARK  Name = BET
REMARK  6 active torsions:
REMARK  status: ('A' for Active; 'I' for Inactive)
REMARK    1  A    between atoms: N_1  and  C_2
REMARK    2  A    between atoms: N_1  and  C_6
REMARK    3  A    between atoms: N_1  and  C_7
REMARK    4  A    between atoms: N_1  and  C_8
REMARK    5  A    between atoms: C_2  and  C_3
REMARK    6  A    between atoms: C_3  and  O_5
REMARK                            x       y       z     vdW  Elec       q    Type
REMARK                         _______ _______ _______ _____ _____    ______ ____
ROOT
ATOM      1  C   UNL     1      83.169  17.425  62.758  0.00  0.00    +0.046 C 
ENDROOT
BRANCH   1   2
ATOM      2  N   UNL     1      82.254  18.603  62.740  0.00  0.00    +0.381 N 
ATOM      3  C   UNL     1      81.031  18.314  61.953  0.00  0.00    -0.092 C 
ATOM      4  C   UNL     1      81.876  19.004  64.117  0.00  0.00    -0.092 C 
ATOM      5  C   UNL     1      82.967  19.736  62.100  0.00  0.00    -0.092 C 
ENDBRANCH   1   2
BRANCH   1   6
ATOM      6  C   UNL     1      82.456  16.097  62.720  0.00  0.00    +0.288 C 
ATOM      7  O   UNL     1      82.501  15.384  61.681  0.00  0.00    -0.253 OA
BRANCH   6   8
ATOM      8  O   UNL     1      81.745  15.659  63.832  0.00  0.00    -0.482 OA
ATOM      9  H   UNL     1      80.732  15.622  63.820  0.00  0.00    +0.295 HD
ENDBRANCH   6   8
ENDBRANCH   1   6
TORSDOF 3
ENDMDL
