MODEL 7
REMARK VINA RESULT:    -3.392     14.312     14.916
REMARK INTER + INTRA:          -3.776
REMARK INTER:                  -3.944
REMARK INTRA:                   0.168
REMARK UNBOUND:                 0.112
REMARK  Name = BET
REMARK  6 active torsions:
REMARK  status: ('A' for Active; 'I' for Inactive)
REMARK    1  A    between atoms: N_1  and  C_2
REMARK    2  A    between atoms: N_1  and  C_6
REMARK    3  A    between atoms: N_1  and  C_7
REMARK    4  A    between atoms: N_1  and  C_8
REMARK    5  A    between atoms: C_2  and  C_3
REMARK    6  A    between atoms: C_3  and  O_5
REMARK                            x       y       z     vdW  Elec       q    Type
REMARK                         _______ _______ _______ _____ _____    ______ ____
ROOT
ATOM      1  C   UNL     1      77.661  11.460  71.842  0.00  0.00    +0.046 C 
ENDROOT
BRANCH   1   2
ATOM      2  N   UNL     1      77.454  11.885  73.257  0.00  0.00    +0.381 N 
ATOM      3  C   UNL     1      77.208  10.715  74.133  0.00  0.00    -0.092 C 
ATOM      4  C   UNL     1      78.623  12.646  73.761  0.00  0.00    -0.092 C 
ATOM      5  C   UNL     1      76.262  12.768  73.308  0.00  0.00    -0.092 C 
ENDBRANCH   1   2
BRANCH   1   6
ATOM      6  C   UNL     1      78.401  10.154  71.698  0.00  0.00    +0.288 C 
ATOM      7  O   UNL     1      79.596  10.057  72.089  0.00  0.00    -0.253 OA
BRANCH   6   8
ATOM      8  O   UNL     1      77.766   9.055  71.130  0.00  0.00    -0.482 OA
ATOM      9  H   UNL     1      77.021   9.178  70.454  0.00  0.00    +0.295 HD
ENDBRANCH   6   8
ENDBRANCH   1   6
TORSDOF 3
ENDMDL
