MODEL 20
REMARK VINA RESULT:    -3.081      2.529      3.090
REMARK INTER + INTRA:          -3.419
REMARK INTER:                  -3.520
REMARK INTRA:                   0.101
REMARK UNBOUND:                 0.112
REMARK  Name = BET
REMARK  6 active torsions:
REMARK  status: ('A' for Active; 'I' for Inactive)
REMARK    1  A    between atoms: N_1  and  C_2
REMARK    2  A    between atoms: N_1  and  C_6
REMARK    3  A    between atoms: N_1  and  C_7
REMARK    4  A    between atoms: N_1  and  C_8
REMARK    5  A    between atoms: C_2  and  C_3
REMARK    6  A    between atoms: C_3  and  O_5
REMARK                            x       y       z     vdW  Elec       q    Type
REMARK                         _______ _______ _______ _____ _____    ______ ____
ROOT
ATOM      1  C   UNL     1      76.008  20.948  62.380  0.00  0.00    +0.046 C 
ENDROOT
BRANCH   1   2
ATOM      2  N   UNL     1      74.921  20.756  61.377  0.00  0.00    +0.381 N 
ATOM      3  C   UNL     1      74.964  21.812  60.337  0.00  0.00    -0.092 C 
ATOM      4  C   UNL     1      75.020  19.422  60.735  0.00  0.00    -0.092 C 
ATOM      5  C   UNL     1      73.618  20.844  62.080  0.00  0.00    -0.092 C 
ENDBRANCH   1   2
BRANCH   1   6
ATOM      6  C   UNL     1      77.305  20.271  62.014  0.00  0.00    +0.288 C 
ATOM      7  O   UNL     1      78.102  20.823  61.208  0.00  0.00    -0.253 OA
BRANCH   6   8
ATOM      8  O   UNL     1      77.621  19.033  62.565  0.00  0.00    -0.482 OA
ATOM      9  H   UNL     1      78.449  18.529  62.269  0.00  0.00    +0.295 HD
ENDBRANCH   6   8
ENDBRANCH   1   6
TORSDOF 3
ENDMDL
