MODEL 17
REMARK VINA RESULT:    -3.140     13.378     14.307
REMARK INTER + INTRA:          -3.487
REMARK INTER:                  -3.583
REMARK INTRA:                   0.096
REMARK UNBOUND:                 0.112
REMARK  Name = BET
REMARK  6 active torsions:
REMARK  status: ('A' for Active; 'I' for Inactive)
REMARK    1  A    between atoms: N_1  and  C_2
REMARK    2  A    between atoms: N_1  and  C_6
REMARK    3  A    between atoms: N_1  and  C_7
REMARK    4  A    between atoms: N_1  and  C_8
REMARK    5  A    between atoms: C_2  and  C_3
REMARK    6  A    between atoms: C_3  and  O_5
REMARK                            x       y       z     vdW  Elec       q    Type
REMARK                         _______ _______ _______ _____ _____    ______ ____
ROOT
ATOM      1  C   UNL     1      77.183  11.983  73.520  0.00  0.00    +0.046 C 
ENDROOT
BRANCH   1   2
ATOM      2  N   UNL     1      76.771  13.414  73.425  0.00  0.00    +0.381 N 
ATOM      3  C   UNL     1      76.843  14.077  74.749  0.00  0.00    -0.092 C 
ATOM      4  C   UNL     1      77.619  14.147  72.454  0.00  0.00    -0.092 C 
ATOM      5  C   UNL     1      75.366  13.463  72.951  0.00  0.00    -0.092 C 
ENDBRANCH   1   2
BRANCH   1   6
ATOM      6  C   UNL     1      78.666  11.762  73.371  0.00  0.00    +0.288 C 
ATOM      7  O   UNL     1      79.124  11.207  72.335  0.00  0.00    -0.253 OA
BRANCH   6   8
ATOM      8  O   UNL     1      79.533  12.168  74.381  0.00  0.00    -0.482 OA
ATOM      9  H   UNL     1      80.184  11.514  74.801  0.00  0.00    +0.295 HD
ENDBRANCH   6   8
ENDBRANCH   1   6
TORSDOF 3
ENDMDL
