MODEL 4
REMARK VINA RESULT:    -4.141      0.879      1.801
REMARK INTER + INTRA:          -4.634
REMARK INTER:                  -4.777
REMARK INTRA:                   0.143
REMARK UNBOUND:                 0.112
REMARK  Name = BET
REMARK  6 active torsions:
REMARK  status: ('A' for Active; 'I' for Inactive)
REMARK    1  A    between atoms: N_1  and  C_2
REMARK    2  A    between atoms: N_1  and  C_6
REMARK    3  A    between atoms: N_1  and  C_7
REMARK    4  A    between atoms: N_1  and  C_8
REMARK    5  A    between atoms: C_2  and  C_3
REMARK    6  A    between atoms: C_3  and  O_5
REMARK                            x       y       z     vdW  Elec       q    Type
REMARK                         _______ _______ _______ _____ _____    ______ ____
ROOT
ATOM      1  C   UNL     1      75.130  20.022  62.918  0.00  0.00    +0.046 C 
ENDROOT
BRANCH   1   2
ATOM      2  N   UNL     1      75.795  20.308  61.613  0.00  0.00    +0.381 N 
ATOM      3  C   UNL     1      75.564  19.209  60.646  0.00  0.00    -0.092 C 
ATOM      4  C   UNL     1      75.309  21.586  61.039  0.00  0.00    -0.092 C 
ATOM      5  C   UNL     1      77.254  20.425  61.851  0.00  0.00    -0.092 C 
ENDBRANCH   1   2
BRANCH   1   6
ATOM      6  C   UNL     1      74.802  21.255  63.721  0.00  0.00    +0.288 C 
ATOM      7  O   UNL     1      73.632  21.725  63.711  0.00  0.00    -0.253 OA
BRANCH   6   8
ATOM      8  O   UNL     1      75.793  21.879  64.472  0.00  0.00    -0.482 OA
ATOM      9  H   UNL     1      75.817  21.785  65.481  0.00  0.00    +0.295 HD
ENDBRANCH   6   8
ENDBRANCH   1   6
TORSDOF 3
ENDMDL
