MODEL 2
REMARK VINA RESULT:    -4.411      1.056      2.049
REMARK INTER + INTRA:          -4.944
REMARK INTER:                  -5.037
REMARK INTRA:                   0.093
REMARK UNBOUND:                 0.112
REMARK  Name = BET
REMARK  6 active torsions:
REMARK  status: ('A' for Active; 'I' for Inactive)
REMARK    1  A    between atoms: N_1  and  C_2
REMARK    2  A    between atoms: N_1  and  C_6
REMARK    3  A    between atoms: N_1  and  C_7
REMARK    4  A    between atoms: N_1  and  C_8
REMARK    5  A    between atoms: C_2  and  C_3
REMARK    6  A    between atoms: C_3  and  O_5
REMARK                            x       y       z     vdW  Elec       q    Type
REMARK                         _______ _______ _______ _____ _____    ______ ____
ROOT
ATOM      1  C   UNL     1      74.305  20.858  62.568  0.00  0.00    +0.046 C 
ENDROOT
BRANCH   1   2
ATOM      2  N   UNL     1      75.108  20.700  61.320  0.00  0.00    +0.381 N 
ATOM      3  C   UNL     1      76.477  21.241  61.497  0.00  0.00    -0.092 C 
ATOM      4  C   UNL     1      75.185  19.277  60.913  0.00  0.00    -0.092 C 
ATOM      5  C   UNL     1      74.439  21.463  60.237  0.00  0.00    -0.092 C 
ENDBRANCH   1   2
BRANCH   1   6
ATOM      6  C   UNL     1      75.099  20.662  63.834  0.00  0.00    +0.288 C 
ATOM      7  O   UNL     1      75.433  21.657  64.532  0.00  0.00    -0.253 OA
BRANCH   6   8
ATOM      8  O   UNL     1      75.467  19.381  64.232  0.00  0.00    -0.482 OA
ATOM      9  H   UNL     1      76.263  18.915  63.811  0.00  0.00    +0.295 HD
ENDBRANCH   6   8
ENDBRANCH   1   6
TORSDOF 3
ENDMDL
