MODEL 14
REMARK VINA RESULT:    -3.253      8.380      9.214
REMARK INTER + INTRA:          -3.617
REMARK INTER:                  -3.744
REMARK INTRA:                   0.128
REMARK UNBOUND:                 0.112
REMARK  Name = BET
REMARK  6 active torsions:
REMARK  status: ('A' for Active; 'I' for Inactive)
REMARK    1  A    between atoms: N_1  and  C_2
REMARK    2  A    between atoms: N_1  and  C_6
REMARK    3  A    between atoms: N_1  and  C_7
REMARK    4  A    between atoms: N_1  and  C_8
REMARK    5  A    between atoms: C_2  and  C_3
REMARK    6  A    between atoms: C_3  and  O_5
REMARK                            x       y       z     vdW  Elec       q    Type
REMARK                         _______ _______ _______ _____ _____    ______ ____
ROOT
ATOM      1  C   UNL     1      82.604  18.704  61.679  0.00  0.00    +0.046 C 
ENDROOT
BRANCH   1   2
ATOM      2  N   UNL     1      82.123  17.893  62.836  0.00  0.00    +0.381 N 
ATOM      3  C   UNL     1      82.398  16.452  62.626  0.00  0.00    -0.092 C 
ATOM      4  C   UNL     1      82.759  18.341  64.099  0.00  0.00    -0.092 C 
ATOM      5  C   UNL     1      80.656  18.079  62.956  0.00  0.00    -0.092 C 
ENDBRANCH   1   2
BRANCH   1   6
ATOM      6  C   UNL     1      84.097  18.907  61.653  0.00  0.00    +0.288 C 
ATOM      7  O   UNL     1      84.853  17.995  61.222  0.00  0.00    -0.253 OA
BRANCH   6   8
ATOM      8  O   UNL     1      84.643  20.103  62.109  0.00  0.00    -0.482 OA
ATOM      9  H   UNL     1      84.973  20.193  63.063  0.00  0.00    +0.295 HD
ENDBRANCH   6   8
ENDBRANCH   1   6
TORSDOF 3
ENDMDL
