MODEL 8
REMARK VINA RESULT:    -3.321     14.618     15.530
REMARK INTER + INTRA:          -3.694
REMARK INTER:                  -3.811
REMARK INTRA:                   0.117
REMARK UNBOUND:                 0.112
REMARK  Name = BET
REMARK  6 active torsions:
REMARK  status: ('A' for Active; 'I' for Inactive)
REMARK    1  A    between atoms: N_1  and  C_2
REMARK    2  A    between atoms: N_1  and  C_6
REMARK    3  A    between atoms: N_1  and  C_7
REMARK    4  A    between atoms: N_1  and  C_8
REMARK    5  A    between atoms: C_2  and  C_3
REMARK    6  A    between atoms: C_3  and  O_5
REMARK                            x       y       z     vdW  Elec       q    Type
REMARK                         _______ _______ _______ _____ _____    ______ ____
ROOT
ATOM      1  C   UNL     1      79.030  10.292  73.607  0.00  0.00    +0.046 C 
ENDROOT
BRANCH   1   2
ATOM      2  N   UNL     1      78.366  11.583  73.950  0.00  0.00    +0.381 N 
ATOM      3  C   UNL     1      78.387  12.514  72.797  0.00  0.00    -0.092 C 
ATOM      4  C   UNL     1      76.966  11.363  74.385  0.00  0.00    -0.092 C 
ATOM      5  C   UNL     1      79.114  12.207  75.070  0.00  0.00    -0.092 C 
ENDBRANCH   1   2
BRANCH   1   6
ATOM      6  C   UNL     1      78.875   9.890  72.163  0.00  0.00    +0.288 C 
ATOM      7  O   UNL     1      79.877   9.879  71.397  0.00  0.00    -0.253 OA
BRANCH   6   8
ATOM      8  O   UNL     1      77.623   9.534  71.671  0.00  0.00    -0.482 OA
ATOM      9  H   UNL     1      77.453   8.602  71.309  0.00  0.00    +0.295 HD
ENDBRANCH   6   8
ENDBRANCH   1   6
TORSDOF 3
ENDMDL
