MODEL 10
REMARK VINA RESULT:    -3.304      2.903      3.607
REMARK INTER + INTRA:          -3.675
REMARK INTER:                  -3.847
REMARK INTRA:                   0.172
REMARK UNBOUND:                 0.112
REMARK  Name = BET
REMARK  6 active torsions:
REMARK  status: ('A' for Active; 'I' for Inactive)
REMARK    1  A    between atoms: N_1  and  C_2
REMARK    2  A    between atoms: N_1  and  C_6
REMARK    3  A    between atoms: N_1  and  C_7
REMARK    4  A    between atoms: N_1  and  C_8
REMARK    5  A    between atoms: C_2  and  C_3
REMARK    6  A    between atoms: C_3  and  O_5
REMARK                            x       y       z     vdW  Elec       q    Type
REMARK                         _______ _______ _______ _____ _____    ______ ____
ROOT
ATOM      1  C   UNL     1      72.987  20.924  61.308  0.00  0.00    +0.046 C 
ENDROOT
BRANCH   1   2
ATOM      2  N   UNL     1      74.260  20.598  60.600  0.00  0.00    +0.381 N 
ATOM      3  C   UNL     1      75.010  19.540  61.317  0.00  0.00    -0.092 C 
ATOM      4  C   UNL     1      73.997  20.165  59.207  0.00  0.00    -0.092 C 
ATOM      5  C   UNL     1      75.096  21.823  60.562  0.00  0.00    -0.092 C 
ENDBRANCH   1   2
BRANCH   1   6
ATOM      6  C   UNL     1      71.838  21.241  60.385  0.00  0.00    +0.288 C 
ATOM      7  O   UNL     1      71.639  22.426  60.005  0.00  0.00    -0.253 OA
BRANCH   6   8
ATOM      8  O   UNL     1      70.993  20.223  59.954  0.00  0.00    -0.482 OA
ATOM      9  H   UNL     1      70.684  19.499  60.592  0.00  0.00    +0.295 HD
ENDBRANCH   6   8
ENDBRANCH   1   6
TORSDOF 3
ENDMDL
