MODEL 3
REMARK VINA RESULT:    -4.326      1.059      1.888
REMARK INTER + INTRA:          -4.847
REMARK INTER:                  -5.081
REMARK INTRA:                   0.234
REMARK UNBOUND:                 0.112
REMARK  Name = BET
REMARK  6 active torsions:
REMARK  status: ('A' for Active; 'I' for Inactive)
REMARK    1  A    between atoms: N_1  and  C_2
REMARK    2  A    between atoms: N_1  and  C_6
REMARK    3  A    between atoms: N_1  and  C_7
REMARK    4  A    between atoms: N_1  and  C_8
REMARK    5  A    between atoms: C_2  and  C_3
REMARK    6  A    between atoms: C_3  and  O_5
REMARK                            x       y       z     vdW  Elec       q    Type
REMARK                         _______ _______ _______ _____ _____    ______ ____
ROOT
ATOM      1  C   UNL     1      74.162  20.763  62.717  0.00  0.00    +0.046 C 
ENDROOT
BRANCH   1   2
ATOM      2  N   UNL     1      74.754  20.646  61.352  0.00  0.00    +0.381 N 
ATOM      3  C   UNL     1      75.085  19.236  61.036  0.00  0.00    -0.092 C 
ATOM      4  C   UNL     1      73.830  21.183  60.325  0.00  0.00    -0.092 C 
ATOM      5  C   UNL     1      76.007  21.441  61.320  0.00  0.00    -0.092 C 
ENDBRANCH   1   2
BRANCH   1   6
ATOM      6  C   UNL     1      75.130  20.459  63.832  0.00  0.00    +0.288 C 
ATOM      7  O   UNL     1      75.359  19.264  64.164  0.00  0.00    -0.253 OA
BRANCH   6   8
ATOM      8  O   UNL     1      75.771  21.499  64.498  0.00  0.00    -0.482 OA
ATOM      9  H   UNL     1      75.405  22.443  64.461  0.00  0.00    +0.295 HD
ENDBRANCH   6   8
ENDBRANCH   1   6
TORSDOF 3
ENDMDL
