MODEL 11
REMARK VINA RESULT:    -3.282     13.067     13.947
REMARK INTER + INTRA:          -3.650
REMARK INTER:                  -3.828
REMARK INTRA:                   0.179
REMARK UNBOUND:                 0.112
REMARK  Name = BET
REMARK  6 active torsions:
REMARK  status: ('A' for Active; 'I' for Inactive)
REMARK    1  A    between atoms: N_1  and  C_2
REMARK    2  A    between atoms: N_1  and  C_6
REMARK    3  A    between atoms: N_1  and  C_7
REMARK    4  A    between atoms: N_1  and  C_8
REMARK    5  A    between atoms: C_2  and  C_3
REMARK    6  A    between atoms: C_3  and  O_5
REMARK                            x       y       z     vdW  Elec       q    Type
REMARK                         _______ _______ _______ _____ _____    ______ ____
ROOT
ATOM      1  C   UNL     1      76.473  12.722  72.666  0.00  0.00    +0.046 C 
ENDROOT
BRANCH   1   2
ATOM      2  N   UNL     1      77.358  11.577  73.033  0.00  0.00    +0.381 N 
ATOM      3  C   UNL     1      77.409  10.575  71.942  0.00  0.00    -0.092 C 
ATOM      4  C   UNL     1      78.730  12.045  73.344  0.00  0.00    -0.092 C 
ATOM      5  C   UNL     1      76.798  10.927  74.243  0.00  0.00    -0.092 C 
ENDBRANCH   1   2
BRANCH   1   6
ATOM      6  C   UNL     1      77.040  14.072  73.024  0.00  0.00    +0.288 C 
ATOM      7  O   UNL     1      76.986  14.487  74.213  0.00  0.00    -0.253 OA
BRANCH   6   8
ATOM      8  O   UNL     1      77.621  14.864  72.039  0.00  0.00    -0.482 OA
ATOM      9  H   UNL     1      77.097  15.611  71.597  0.00  0.00    +0.295 HD
ENDBRANCH   6   8
ENDBRANCH   1   6
TORSDOF 3
ENDMDL
