MODEL 6
REMARK VINA RESULT:    -3.422      1.565      2.600
REMARK INTER + INTRA:          -3.810
REMARK INTER:                  -3.925
REMARK INTRA:                   0.114
REMARK UNBOUND:                 0.112
REMARK  Name = BET
REMARK  6 active torsions:
REMARK  status: ('A' for Active; 'I' for Inactive)
REMARK    1  A    between atoms: N_1  and  C_2
REMARK    2  A    between atoms: N_1  and  C_6
REMARK    3  A    between atoms: N_1  and  C_7
REMARK    4  A    between atoms: N_1  and  C_8
REMARK    5  A    between atoms: C_2  and  C_3
REMARK    6  A    between atoms: C_3  and  O_5
REMARK                            x       y       z     vdW  Elec       q    Type
REMARK                         _______ _______ _______ _____ _____    ______ ____
ROOT
ATOM      1  C   UNL     1      75.609  21.548  61.574  0.00  0.00    +0.046 C 
ENDROOT
BRANCH   1   2
ATOM      2  N   UNL     1      74.435  20.673  61.861  0.00  0.00    +0.381 N 
ATOM      3  C   UNL     1      74.863  19.276  62.115  0.00  0.00    -0.092 C 
ATOM      4  C   UNL     1      73.668  21.177  63.025  0.00  0.00    -0.092 C 
ATOM      5  C   UNL     1      73.547  20.682  60.673  0.00  0.00    -0.092 C 
ENDBRANCH   1   2
BRANCH   1   6
ATOM      6  C   UNL     1      76.792  21.299  62.474  0.00  0.00    +0.288 C 
ATOM      7  O   UNL     1      77.813  20.708  62.029  0.00  0.00    -0.253 OA
BRANCH   6   8
ATOM      8  O   UNL     1      76.756  21.716  63.801  0.00  0.00    -0.482 OA
ATOM      9  H   UNL     1      77.608  21.797  64.343  0.00  0.00    +0.295 HD
ENDBRANCH   6   8
ENDBRANCH   1   6
TORSDOF 3
ENDMDL
