MODEL 1
REMARK VINA RESULT:    -6.827      0.000      0.000
REMARK INTER + INTRA:         -10.173
REMARK INTER:                  -9.222
REMARK INTRA:                  -0.951
REMARK UNBOUND:                -0.951
REMARK  Name = 5GP
REMARK  8 active torsions:
REMARK  status: ('A' for Active; 'I' for Inactive)
REMARK    1  A    between atoms: P_1  and  O_3
REMARK    2  A    between atoms: P_1  and  O_4
REMARK    3  A    between atoms: P_1  and  O_5
REMARK    4  A    between atoms: O_5  and  C_6
REMARK    5  A    between atoms: C_6  and  C_7
REMARK    6  A    between atoms: C_9  and  O_10
REMARK    7  A    between atoms: C_11  and  O_12
REMARK    8  A    between atoms: C_13  and  N_14
REMARK                            x       y       z     vdW  Elec       q    Type
REMARK                         _______ _______ _______ _____ _____    ______ ____
ROOT
ATOM      1  C   UNL     1      24.445  -3.767  52.874  0.00  0.00    +0.178 C 
ATOM      2  O   UNL     1      24.030  -3.314  51.599  0.00  0.00    -0.346 OA
ATOM      3  C   UNL     1      25.949  -3.507  53.037  0.00  0.00    +0.178 C 
ATOM      4  C   UNL     1      26.191  -2.389  52.051  0.00  0.00    +0.195 C 
ATOM      5  C   UNL     1      25.106  -2.619  51.000  0.00  0.00    +0.253 C 
ENDROOT
BRANCH   5   6
ATOM      6  N   UNL     1      24.640  -1.345  50.452  0.00  0.00    -0.285 N 
ATOM      7  C   UNL     1      23.576  -0.596  50.851  0.00  0.00    +0.203 A 
ATOM      8  N   UNL     1      23.481   0.596  50.198  0.00  0.00    -0.229 NA
ATOM      9  C   UNL     1      24.546   0.568  49.374  0.00  0.00    +0.172 A 
ATOM     10  C   UNL     1      24.990   1.526  48.475  0.00  0.00    +0.280 A 
ATOM     11  O   UNL     1      24.364   2.608  48.314  0.00  0.00    -0.265 OA
ATOM     12  N   UNL     1      26.133   1.264  47.771  0.00  0.00    -0.293 N 
ATOM     13  C   UNL     1      26.825   0.088  47.952  0.00  0.00    +0.195 A 
ATOM     14  N   UNL     1      28.019  -0.164  47.212  0.00  0.00    -0.329 N 
ATOM     15  N   UNL     1      26.375  -0.847  48.845  0.00  0.00    -0.196 NA
ATOM     16  C   UNL     1      25.238  -0.581  49.530  0.00  0.00    +0.171 A 
ATOM     17  H   UNL     1      26.487   1.971  47.088  0.00  0.00    +0.172 HD
ATOM     18  H   UNL     1      28.547  -1.054  47.348  0.00  0.00    +0.145 HD
ATOM     19  H   UNL     1      28.379   0.537  46.527  0.00  0.00    +0.145 HD
ENDBRANCH   5   6
BRANCH   3  20
ATOM     20  O   UNL     1      26.705  -4.659  52.737  0.00  0.00    -0.386 OA
ATOM     21  H   UNL     1      26.162  -5.459  52.965  0.00  0.00    +0.210 HD
ENDBRANCH   3  20
BRANCH   4  22
ATOM     22  O   UNL     1      27.498  -2.374  51.522  0.00  0.00    -0.385 OA
ATOM     23  H   UNL     1      27.971  -1.570  51.860  0.00  0.00    +0.210 HD
ENDBRANCH   4  22
BRANCH   1  24
ATOM     24  C   UNL     1      23.627  -3.051  53.955  0.00  0.00    +0.206 C 
BRANCH  24  25
ATOM     25  O   UNL     1      24.398  -2.954  55.129  0.00  0.00    -0.284 OA
BRANCH  25  26
ATOM     26  P   UNL     1      24.317  -1.348  55.701  0.00  0.00    +0.472 P 
ATOM     27  O   UNL     1      24.548  -1.321  57.197  0.00  0.00    -0.228 OA
BRANCH  26  28
ATOM     28  O   UNL     1      22.810  -0.663  55.339  0.00  0.00    -0.303 OA
ATOM     29  H   UNL     1      22.538  -1.075  54.480  0.00  0.00    +0.222 HD
ENDBRANCH  26  28
BRANCH  26  30
ATOM     30  O   UNL     1      25.523  -0.438  54.941  0.00  0.00    -0.303 OA
ATOM     31  H   UNL     1      25.732  -0.936  54.112  0.00  0.00    +0.222 HD
ENDBRANCH  26  30
ENDBRANCH  25  26
ENDBRANCH  24  25
ENDBRANCH   1  24
TORSDOF 8
ENDMDL
MODEL 2
REMARK VINA RESULT:    -6.744      2.280      3.393
REMARK INTER + INTRA:         -10.060
REMARK INTER:                  -9.108
REMARK INTRA:                  -0.952
REMARK UNBOUND:                -0.951
REMARK  Name = 5GP
REMARK  8 active torsions:
REMARK  status: ('A' for Active; 'I' for Inactive)
REMARK    1  A    between atoms: P_1  and  O_3
REMARK    2  A    between atoms: P_1  and  O_4
REMARK    3  A    between atoms: P_1  and  O_5
REMARK    4  A    between atoms: O_5  and  C_6
REMARK    5  A    between atoms: C_6  and  C_7
REMARK    6  A    between atoms: C_9  and  O_10
REMARK    7  A    between atoms: C_11  and  O_12
REMARK    8  A    between atoms: C_13  and  N_14
REMARK                            x       y       z     vdW  Elec       q    Type
REMARK                         _______ _______ _______ _____ _____    ______ ____
ROOT
ATOM      1  C   UNL     1      21.956  -3.489  54.464  0.00  0.00    +0.178 C 
ATOM      2  O   UNL     1      21.303  -2.854  53.381  0.00  0.00    -0.346 OA
ATOM      3  C   UNL     1      22.668  -4.750  53.954  0.00  0.00    +0.178 C 
ATOM      4  C   UNL     1      22.852  -4.445  52.486  0.00  0.00    +0.195 C 
ATOM      5  C   UNL     1      21.687  -3.503  52.185  0.00  0.00    +0.253 C 
ENDROOT
BRANCH   5   6
ATOM      6  N   UNL     1      22.071  -2.515  51.176  0.00  0.00    -0.285 N 
ATOM      7  C   UNL     1      21.318  -2.015  50.159  0.00  0.00    +0.203 A 
ATOM      8  N   UNL     1      21.943  -1.026  49.461  0.00  0.00    -0.229 NA
ATOM      9  C   UNL     1      23.125  -0.918  50.096  0.00  0.00    +0.172 A 
ATOM     10  C   UNL     1      24.180  -0.050  49.853  0.00  0.00    +0.280 A 
ATOM     11  O   UNL     1      24.135   0.782  48.907  0.00  0.00    -0.265 OA
ATOM     12  N   UNL     1      25.272  -0.123  50.674  0.00  0.00    -0.293 N 
ATOM     13  C   UNL     1      25.320  -1.022  51.714  0.00  0.00    +0.195 A 
ATOM     14  N   UNL     1      26.466  -1.077  52.564  0.00  0.00    -0.329 N 
ATOM     15  N   UNL     1      24.270  -1.870  51.944  0.00  0.00    -0.196 NA
ATOM     16  C   UNL     1      23.198  -1.796  51.119  0.00  0.00    +0.171 A 
ATOM     17  H   UNL     1      26.079   0.521  50.510  0.00  0.00    +0.172 HD
ATOM     18  H   UNL     1      26.505  -1.757  53.354  0.00  0.00    +0.145 HD
ATOM     19  H   UNL     1      27.277  -0.439  52.406  0.00  0.00    +0.145 HD
ENDBRANCH   5   6
BRANCH   3  20
ATOM     20  O   UNL     1      21.886  -5.904  54.168  0.00  0.00    -0.386 OA
ATOM     21  H   UNL     1      22.318  -6.448  54.877  0.00  0.00    +0.210 HD
ENDBRANCH   3  20
BRANCH   4  22
ATOM     22  O   UNL     1      22.878  -5.593  51.670  0.00  0.00    -0.385 OA
ATOM     23  H   UNL     1      22.933  -6.397  52.249  0.00  0.00    +0.210 HD
ENDBRANCH   4  22
BRANCH   1  24
ATOM     24  C   UNL     1      22.940  -2.504  55.107  0.00  0.00    +0.206 C 
BRANCH  24  25
ATOM     25  O   UNL     1      24.182  -3.144  55.286  0.00  0.00    -0.284 OA
BRANCH  25  26
ATOM     26  P   UNL     1      25.312  -1.992  55.842  0.00  0.00    +0.472 P 
ATOM     27  O   UNL     1      24.959  -0.621  55.305  0.00  0.00    -0.228 OA
BRANCH  26  28
ATOM     28  O   UNL     1      26.879  -2.414  55.357  0.00  0.00    -0.303 OA
ATOM     29  H   UNL     1      27.021  -3.330  55.707  0.00  0.00    +0.222 HD
ENDBRANCH  26  28
BRANCH  26  30
ATOM     30  O   UNL     1      25.260  -1.949  57.532  0.00  0.00    -0.303 OA
ATOM     31  H   UNL     1      24.303  -2.066  57.759  0.00  0.00    +0.222 HD
ENDBRANCH  26  30
ENDBRANCH  25  26
ENDBRANCH  24  25
ENDBRANCH   1  24
TORSDOF 8
ENDMDL
MODEL 3
REMARK VINA RESULT:    -6.688     10.202     12.937
REMARK INTER + INTRA:          -9.984
REMARK INTER:                  -9.094
REMARK INTRA:                  -0.891
REMARK UNBOUND:                -0.951
REMARK  Name = 5GP
REMARK  8 active torsions:
REMARK  status: ('A' for Active; 'I' for Inactive)
REMARK    1  A    between atoms: P_1  and  O_3
REMARK    2  A    between atoms: P_1  and  O_4
REMARK    3  A    between atoms: P_1  and  O_5
REMARK    4  A    between atoms: O_5  and  C_6
REMARK    5  A    between atoms: C_6  and  C_7
REMARK    6  A    between atoms: C_9  and  O_10
REMARK    7  A    between atoms: C_11  and  O_12
REMARK    8  A    between atoms: C_13  and  N_14
REMARK                            x       y       z     vdW  Elec       q    Type
REMARK                         _______ _______ _______ _____ _____    ______ ____
ROOT
ATOM      1  C   UNL     1      36.740  -3.623  45.451  0.00  0.00    +0.178 C 
ATOM      2  O   UNL     1      35.468  -3.220  45.920  0.00  0.00    -0.346 OA
ATOM      3  C   UNL     1      37.584  -4.112  46.637  0.00  0.00    +0.178 C 
ATOM      4  C   UNL     1      36.528  -4.495  47.647  0.00  0.00    +0.195 C 
ATOM      5  C   UNL     1      35.360  -3.579  47.283  0.00  0.00    +0.253 C 
ENDROOT
BRANCH   5   6
ATOM      6  N   UNL     1      34.083  -4.250  47.528  0.00  0.00    -0.285 N 
ATOM      7  C   UNL     1      33.222  -4.778  46.617  0.00  0.00    +0.203 A 
ATOM      8  N   UNL     1      32.169  -5.431  47.185  0.00  0.00    -0.229 NA
ATOM      9  C   UNL     1      32.414  -5.297  48.502  0.00  0.00    +0.172 A 
ATOM     10  C   UNL     1      31.697  -5.783  49.586  0.00  0.00    +0.280 A 
ATOM     11  O   UNL     1      30.632  -6.437  49.422  0.00  0.00    -0.265 OA
ATOM     12  N   UNL     1      32.183  -5.533  50.840  0.00  0.00    -0.293 N 
ATOM     13  C   UNL     1      33.351  -4.829  51.022  0.00  0.00    +0.195 A 
ATOM     14  N   UNL     1      33.844  -4.584  52.339  0.00  0.00    -0.329 N 
ATOM     15  N   UNL     1      34.050  -4.358  49.942  0.00  0.00    -0.196 NA
ATOM     16  C   UNL     1      33.554  -4.603  48.706  0.00  0.00    +0.171 A 
ATOM     17  H   UNL     1      31.660  -5.889  51.672  0.00  0.00    +0.172 HD
ATOM     18  H   UNL     1      34.731  -4.052  52.480  0.00  0.00    +0.145 HD
ATOM     19  H   UNL     1      33.327  -4.935  53.175  0.00  0.00    +0.145 HD
ENDBRANCH   5   6
BRANCH   3  20
ATOM     20  O   UNL     1      38.438  -3.096  47.113  0.00  0.00    -0.386 OA
ATOM     21  H   UNL     1      38.892  -3.427  47.932  0.00  0.00    +0.210 HD
ENDBRANCH   3  20
BRANCH   4  22
ATOM     22  O   UNL     1      36.953  -4.368  48.984  0.00  0.00    -0.385 OA
ATOM     23  H   UNL     1      36.762  -5.216  49.463  0.00  0.00    +0.210 HD
ENDBRANCH   4  22
BRANCH   1  24
ATOM     24  C   UNL     1      36.564  -4.718  44.392  0.00  0.00    +0.206 C 
BRANCH  24  25
ATOM     25  O   UNL     1      35.319  -4.549  43.756  0.00  0.00    -0.284 OA
BRANCH  25  26
ATOM     26  P   UNL     1      35.592  -3.984  42.169  0.00  0.00    +0.472 P 
ATOM     27  O   UNL     1      35.154  -5.030  41.166  0.00  0.00    -0.228 OA
BRANCH  26  28
ATOM     28  O   UNL     1      37.230  -3.617  41.941  0.00  0.00    -0.303 OA
ATOM     29  H   UNL     1      37.694  -4.009  42.723  0.00  0.00    +0.222 HD
ENDBRANCH  26  28
BRANCH  26  30
ATOM     30  O   UNL     1      34.682  -2.578  41.928  0.00  0.00    -0.303 OA
ATOM     31  H   UNL     1      34.640  -2.148  42.819  0.00  0.00    +0.222 HD
ENDBRANCH  26  30
ENDBRANCH  25  26
ENDBRANCH  24  25
ENDBRANCH   1  24
TORSDOF 8
ENDMDL
MODEL 4
REMARK VINA RESULT:    -6.606      3.392      6.686
REMARK INTER + INTRA:          -9.873
REMARK INTER:                  -9.012
REMARK INTRA:                  -0.861
REMARK UNBOUND:                -0.951
REMARK  Name = 5GP
REMARK  8 active torsions:
REMARK  status: ('A' for Active; 'I' for Inactive)
REMARK    1  A    between atoms: P_1  and  O_3
REMARK    2  A    between atoms: P_1  and  O_4
REMARK    3  A    between atoms: P_1  and  O_5
REMARK    4  A    between atoms: O_5  and  C_6
REMARK    5  A    between atoms: C_6  and  C_7
REMARK    6  A    between atoms: C_9  and  O_10
REMARK    7  A    between atoms: C_11  and  O_12
REMARK    8  A    between atoms: C_13  and  N_14
REMARK                            x       y       z     vdW  Elec       q    Type
REMARK                         _______ _______ _______ _____ _____    ______ ____
ROOT
ATOM      1  C   UNL     1      26.213  -0.770  49.246  0.00  0.00    +0.178 C 
ATOM      2  O   UNL     1      26.175  -1.764  50.252  0.00  0.00    -0.346 OA
ATOM      3  C   UNL     1      24.870  -0.025  49.222  0.00  0.00    +0.178 C 
ATOM      4  C   UNL     1      24.344  -0.267  50.618  0.00  0.00    +0.195 C 
ATOM      5  C   UNL     1      24.986  -1.600  50.999  0.00  0.00    +0.253 C 
ENDROOT
BRANCH   5   6
ATOM      6  N   UNL     1      25.281  -1.639  52.432  0.00  0.00    -0.285 N 
ATOM      7  C   UNL     1      26.436  -1.293  53.062  0.00  0.00    +0.203 A 
ATOM      8  N   UNL     1      26.345  -1.345  54.421  0.00  0.00    -0.229 NA
ATOM      9  C   UNL     1      25.069  -1.731  54.617  0.00  0.00    +0.172 A 
ATOM     10  C   UNL     1      24.382  -1.930  55.805  0.00  0.00    +0.280 A 
ATOM     11  O   UNL     1      24.949  -1.776  56.920  0.00  0.00    -0.265 OA
ATOM     12  N   UNL     1      23.065  -2.294  55.730  0.00  0.00    -0.293 N 
ATOM     13  C   UNL     1      22.439  -2.452  54.515  0.00  0.00    +0.195 A 
ATOM     14  N   UNL     1      21.063  -2.827  54.459  0.00  0.00    -0.329 N 
ATOM     15  N   UNL     1      23.131  -2.249  53.350  0.00  0.00    -0.196 NA
ATOM     16  C   UNL     1      24.436  -1.898  53.436  0.00  0.00    +0.171 A 
ATOM     17  H   UNL     1      22.526  -2.450  56.612  0.00  0.00    +0.172 HD
ATOM     18  H   UNL     1      20.586  -2.946  53.538  0.00  0.00    +0.145 HD
ATOM     19  H   UNL     1      20.518  -2.985  55.335  0.00  0.00    +0.145 HD
ENDBRANCH   5   6
BRANCH   3  20
ATOM     20  O   UNL     1      24.013  -0.542  48.229  0.00  0.00    -0.386 OA
ATOM     21  H   UNL     1      23.508  -1.304  48.616  0.00  0.00    +0.210 HD
ENDBRANCH   3  20
BRANCH   4  22
ATOM     22  O   UNL     1      22.937  -0.272  50.697  0.00  0.00    -0.385 OA
ATOM     23  H   UNL     1      22.573  -0.743  49.904  0.00  0.00    +0.210 HD
ENDBRANCH   4  22
BRANCH   1  24
ATOM     24  C   UNL     1      27.384   0.182  49.520  0.00  0.00    +0.206 C 
BRANCH  24  25
ATOM     25  O   UNL     1      28.304  -0.453  50.376  0.00  0.00    -0.284 OA
BRANCH  25  26
ATOM     26  P   UNL     1      29.840   0.253  50.143  0.00  0.00    +0.472 P 
ATOM     27  O   UNL     1      30.146   1.208  51.277  0.00  0.00    -0.228 OA
BRANCH  26  28
ATOM     28  O   UNL     1      29.897   1.078  48.664  0.00  0.00    -0.303 OA
ATOM     29  H   UNL     1      30.817   1.441  48.606  0.00  0.00    +0.222 HD
ENDBRANCH  26  28
BRANCH  26  30
ATOM     30  O   UNL     1      31.006  -0.972  50.126  0.00  0.00    -0.303 OA
ATOM     31  H   UNL     1      31.708  -0.661  50.751  0.00  0.00    +0.222 HD
ENDBRANCH  26  30
ENDBRANCH  25  26
ENDBRANCH  24  25
ENDBRANCH   1  24
TORSDOF 8
ENDMDL
MODEL 5
REMARK VINA RESULT:    -6.544      8.844     10.862
REMARK INTER + INTRA:          -9.790
REMARK INTER:                  -9.017
REMARK INTRA:                  -0.773
REMARK UNBOUND:                -0.951
REMARK  Name = 5GP
REMARK  8 active torsions:
REMARK  status: ('A' for Active; 'I' for Inactive)
REMARK    1  A    between atoms: P_1  and  O_3
REMARK    2  A    between atoms: P_1  and  O_4
REMARK    3  A    between atoms: P_1  and  O_5
REMARK    4  A    between atoms: O_5  and  C_6
REMARK    5  A    between atoms: C_6  and  C_7
REMARK    6  A    between atoms: C_9  and  O_10
REMARK    7  A    between atoms: C_11  and  O_12
REMARK    8  A    between atoms: C_13  and  N_14
REMARK                            x       y       z     vdW  Elec       q    Type
REMARK                         _______ _______ _______ _____ _____    ______ ____
ROOT
ATOM      1  C   UNL     1      32.469  -4.741  49.701  0.00  0.00    +0.178 C 
ATOM      2  O   UNL     1      33.153  -5.276  48.584  0.00  0.00    -0.346 OA
ATOM      3  C   UNL     1      33.472  -4.007  50.603  0.00  0.00    +0.178 C 
ATOM      4  C   UNL     1      34.590  -3.680  49.642  0.00  0.00    +0.195 C 
ATOM      5  C   UNL     1      34.482  -4.794  48.600  0.00  0.00    +0.253 C 
ENDROOT
BRANCH   5   6
ATOM      6  N   UNL     1      34.855  -4.298  47.275  0.00  0.00    -0.285 N 
ATOM      7  C   UNL     1      34.391  -3.195  46.628  0.00  0.00    +0.203 A 
ATOM      8  N   UNL     1      35.026  -2.956  45.447  0.00  0.00    -0.229 NA
ATOM      9  C   UNL     1      35.923  -3.959  45.385  0.00  0.00    +0.172 A 
ATOM     10  C   UNL     1      36.879  -4.227  44.417  0.00  0.00    +0.280 A 
ATOM     11  O   UNL     1      36.993  -3.501  43.393  0.00  0.00    -0.265 OA
ATOM     12  N   UNL     1      37.701  -5.304  44.608  0.00  0.00    -0.293 N 
ATOM     13  C   UNL     1      37.588  -6.093  45.730  0.00  0.00    +0.195 A 
ATOM     14  N   UNL     1      38.459  -7.209  45.914  0.00  0.00    -0.329 N 
ATOM     15  N   UNL     1      36.641  -5.814  46.679  0.00  0.00    -0.196 NA
ATOM     16  C   UNL     1      35.827  -4.751  46.474  0.00  0.00    +0.171 A 
ATOM     17  H   UNL     1      38.429  -5.526  43.892  0.00  0.00    +0.172 HD
ATOM     18  H   UNL     1      38.376  -7.808  46.764  0.00  0.00    +0.145 HD
ATOM     19  H   UNL     1      39.188  -7.439  45.203  0.00  0.00    +0.145 HD
ENDBRANCH   5   6
BRANCH   3  20
ATOM     20  O   UNL     1      33.901  -4.828  51.666  0.00  0.00    -0.386 OA
ATOM     21  H   UNL     1      33.385  -4.584  52.479  0.00  0.00    +0.210 HD
ENDBRANCH   3  20
BRANCH   4  22
ATOM     22  O   UNL     1      35.857  -3.599  50.255  0.00  0.00    -0.385 OA
ATOM     23  H   UNL     1      36.066  -4.474  50.674  0.00  0.00    +0.210 HD
ENDBRANCH   4  22
BRANCH   1  24
ATOM     24  C   UNL     1      31.359  -3.803  49.210  0.00  0.00    +0.206 C 
BRANCH  24  25
ATOM     25  O   UNL     1      31.150  -2.793  50.169  0.00  0.00    -0.284 OA
BRANCH  25  26
ATOM     26  P   UNL     1      30.655  -1.373  49.364  0.00  0.00    +0.472 P 
ATOM     27  O   UNL     1      29.238  -1.533  48.857  0.00  0.00    -0.228 OA
BRANCH  26  28
ATOM     28  O   UNL     1      31.694  -1.029  48.070  0.00  0.00    -0.303 OA
ATOM     29  H   UNL     1      31.954  -0.081  48.192  0.00  0.00    +0.222 HD
ENDBRANCH  26  28
BRANCH  26  30
ATOM     30  O   UNL     1      30.705  -0.082  50.456  0.00  0.00    -0.303 OA
ATOM     31  H   UNL     1      30.256   0.665  49.986  0.00  0.00    +0.222 HD
ENDBRANCH  26  30
ENDBRANCH  25  26
ENDBRANCH  24  25
ENDBRANCH   1  24
TORSDOF 8
ENDMDL
MODEL 6
REMARK VINA RESULT:    -6.529      6.428      8.485
REMARK INTER + INTRA:          -9.769
REMARK INTER:                  -9.142
REMARK INTRA:                  -0.627
REMARK UNBOUND:                -0.951
REMARK  Name = 5GP
REMARK  8 active torsions:
REMARK  status: ('A' for Active; 'I' for Inactive)
REMARK    1  A    between atoms: P_1  and  O_3
REMARK    2  A    between atoms: P_1  and  O_4
REMARK    3  A    between atoms: P_1  and  O_5
REMARK    4  A    between atoms: O_5  and  C_6
REMARK    5  A    between atoms: C_6  and  C_7
REMARK    6  A    between atoms: C_9  and  O_10
REMARK    7  A    between atoms: C_11  and  O_12
REMARK    8  A    between atoms: C_13  and  N_14
REMARK                            x       y       z     vdW  Elec       q    Type
REMARK                         _______ _______ _______ _____ _____    ______ ____
ROOT
ATOM      1  C   UNL     1      33.134  -3.684  49.766  0.00  0.00    +0.178 C 
ATOM      2  O   UNL     1      32.361  -2.516  49.969  0.00  0.00    -0.346 OA
ATOM      3  C   UNL     1      32.372  -4.896  50.321  0.00  0.00    +0.178 C 
ATOM      4  C   UNL     1      30.940  -4.415  50.298  0.00  0.00    +0.195 C 
ATOM      5  C   UNL     1      31.086  -2.901  50.445  0.00  0.00    +0.253 C 
ENDROOT
BRANCH   5   6
ATOM      6  N   UNL     1      30.038  -2.206  49.697  0.00  0.00    -0.285 N 
ATOM      7  C   UNL     1      29.095  -2.741  48.876  0.00  0.00    +0.203 A 
ATOM      8  N   UNL     1      28.197  -1.826  48.417  0.00  0.00    -0.229 NA
ATOM      9  C   UNL     1      28.614  -0.685  48.999  0.00  0.00    +0.172 A 
ATOM     10  C   UNL     1      28.072   0.590  48.928  0.00  0.00    +0.280 A 
ATOM     11  O   UNL     1      27.054   0.827  48.224  0.00  0.00    -0.265 OA
ATOM     12  N   UNL     1      28.675   1.584  49.650  0.00  0.00    -0.293 N 
ATOM     13  C   UNL     1      29.779   1.326  50.429  0.00  0.00    +0.195 A 
ATOM     14  N   UNL     1      30.389   2.376  51.179  0.00  0.00    -0.329 N 
ATOM     15  N   UNL     1      30.301   0.062  50.491  0.00  0.00    -0.196 NA
ATOM     16  C   UNL     1      29.702  -0.912  49.765  0.00  0.00    +0.171 A 
ATOM     17  H   UNL     1      28.284   2.552  49.611  0.00  0.00    +0.172 HD
ATOM     18  H   UNL     1      31.226   2.183  51.771  0.00  0.00    +0.145 HD
ATOM     19  H   UNL     1      30.007   3.347  51.146  0.00  0.00    +0.145 HD
ENDBRANCH   5   6
BRANCH   3  20
ATOM     20  O   UNL     1      32.806  -5.223  51.623  0.00  0.00    -0.386 OA
ATOM     21  H   UNL     1      32.778  -6.210  51.724  0.00  0.00    +0.210 HD
ENDBRANCH   3  20
BRANCH   4  22
ATOM     22  O   UNL     1      30.129  -5.005  51.288  0.00  0.00    -0.385 OA
ATOM     23  H   UNL     1      29.954  -5.948  51.037  0.00  0.00    +0.210 HD
ENDBRANCH   4  22
BRANCH   1  24
ATOM     24  C   UNL     1      33.430  -3.840  48.269  0.00  0.00    +0.206 C 
BRANCH  24  25
ATOM     25  O   UNL     1      34.161  -5.026  48.064  0.00  0.00    -0.284 OA
BRANCH  25  26
ATOM     26  P   UNL     1      35.797  -4.618  47.803  0.00  0.00    +0.472 P 
ATOM     27  O   UNL     1      36.527  -5.786  47.176  0.00  0.00    -0.228 OA
BRANCH  26  28
ATOM     28  O   UNL     1      36.544  -4.188  49.262  0.00  0.00    -0.303 OA
ATOM     29  H   UNL     1      35.802  -3.932  49.867  0.00  0.00    +0.222 HD
ENDBRANCH  26  28
BRANCH  26  30
ATOM     30  O   UNL     1      35.867  -3.296  46.749  0.00  0.00    -0.303 OA
ATOM     31  H   UNL     1      34.985  -2.855  46.837  0.00  0.00    +0.222 HD
ENDBRANCH  26  30
ENDBRANCH  25  26
ENDBRANCH  24  25
ENDBRANCH   1  24
TORSDOF 8
ENDMDL
MODEL 7
REMARK VINA RESULT:    -6.508      3.561      6.925
REMARK INTER + INTRA:          -9.741
REMARK INTER:                  -8.963
REMARK INTRA:                  -0.778
REMARK UNBOUND:                -0.951
REMARK  Name = 5GP
REMARK  8 active torsions:
REMARK  status: ('A' for Active; 'I' for Inactive)
REMARK    1  A    between atoms: P_1  and  O_3
REMARK    2  A    between atoms: P_1  and  O_4
REMARK    3  A    between atoms: P_1  and  O_5
REMARK    4  A    between atoms: O_5  and  C_6
REMARK    5  A    between atoms: C_6  and  C_7
REMARK    6  A    between atoms: C_9  and  O_10
REMARK    7  A    between atoms: C_11  and  O_12
REMARK    8  A    between atoms: C_13  and  N_14
REMARK                            x       y       z     vdW  Elec       q    Type
REMARK                         _______ _______ _______ _____ _____    ______ ____
ROOT
ATOM      1  C   UNL     1      26.257  -0.861  49.248  0.00  0.00    +0.178 C 
ATOM      2  O   UNL     1      26.177  -1.845  50.261  0.00  0.00    -0.346 OA
ATOM      3  C   UNL     1      24.949  -0.057  49.221  0.00  0.00    +0.178 C 
ATOM      4  C   UNL     1      24.415  -0.265  50.619  0.00  0.00    +0.195 C 
ATOM      5  C   UNL     1      24.998  -1.623  51.009  0.00  0.00    +0.253 C 
ENDROOT
BRANCH   5   6
ATOM      6  N   UNL     1      25.294  -1.665  52.441  0.00  0.00    -0.285 N 
ATOM      7  C   UNL     1      26.450  -1.326  53.071  0.00  0.00    +0.203 A 
ATOM      8  N   UNL     1      26.359  -1.379  54.430  0.00  0.00    -0.229 NA
ATOM      9  C   UNL     1      25.082  -1.758  54.626  0.00  0.00    +0.172 A 
ATOM     10  C   UNL     1      24.394  -1.953  55.815  0.00  0.00    +0.280 A 
ATOM     11  O   UNL     1      24.963  -1.804  56.929  0.00  0.00    -0.265 OA
ATOM     12  N   UNL     1      23.075  -2.310  55.740  0.00  0.00    -0.293 N 
ATOM     13  C   UNL     1      22.448  -2.463  54.525  0.00  0.00    +0.195 A 
ATOM     14  N   UNL     1      21.070  -2.830  54.470  0.00  0.00    -0.329 N 
ATOM     15  N   UNL     1      23.140  -2.263  53.361  0.00  0.00    -0.196 NA
ATOM     16  C   UNL     1      24.447  -1.920  53.446  0.00  0.00    +0.171 A 
ATOM     17  H   UNL     1      22.536  -2.464  56.623  0.00  0.00    +0.172 HD
ATOM     18  H   UNL     1      20.591  -2.946  53.550  0.00  0.00    +0.145 HD
ATOM     19  H   UNL     1      20.524  -2.987  55.346  0.00  0.00    +0.145 HD
ENDBRANCH   5   6
BRANCH   3  20
ATOM     20  O   UNL     1      24.068  -0.542  48.233  0.00  0.00    -0.386 OA
ATOM     21  H   UNL     1      23.260   0.036  48.222  0.00  0.00    +0.210 HD
ENDBRANCH   3  20
BRANCH   4  22
ATOM     22  O   UNL     1      23.009  -0.207  50.701  0.00  0.00    -0.385 OA
ATOM     23  H   UNL     1      22.723  -0.593  51.569  0.00  0.00    +0.210 HD
ENDBRANCH   4  22
BRANCH   1  24
ATOM     24  C   UNL     1      27.469   0.040  49.513  0.00  0.00    +0.206 C 
BRANCH  24  25
ATOM     25  O   UNL     1      27.674   0.878  48.401  0.00  0.00    -0.284 OA
BRANCH  25  26
ATOM     26  P   UNL     1      28.741   2.131  48.853  0.00  0.00    +0.472 P 
ATOM     27  O   UNL     1      29.839   2.271  47.821  0.00  0.00    -0.228 OA
BRANCH  26  28
ATOM     28  O   UNL     1      29.416   1.817  50.375  0.00  0.00    -0.303 OA
ATOM     29  H   UNL     1      28.645   1.623  50.965  0.00  0.00    +0.222 HD
ENDBRANCH  26  28
BRANCH  26  30
ATOM     30  O   UNL     1      27.874   3.581  48.933  0.00  0.00    -0.303 OA
ATOM     31  H   UNL     1      28.402   4.222  48.393  0.00  0.00    +0.222 HD
ENDBRANCH  26  30
ENDBRANCH  25  26
ENDBRANCH  24  25
ENDBRANCH   1  24
TORSDOF 8
ENDMDL
MODEL 8
REMARK VINA RESULT:    -6.479      3.226      5.465
REMARK INTER + INTRA:          -9.703
REMARK INTER:                  -9.044
REMARK INTRA:                  -0.658
REMARK UNBOUND:                -0.951
REMARK  Name = 5GP
REMARK  8 active torsions:
REMARK  status: ('A' for Active; 'I' for Inactive)
REMARK    1  A    between atoms: P_1  and  O_3
REMARK    2  A    between atoms: P_1  and  O_4
REMARK    3  A    between atoms: P_1  and  O_5
REMARK    4  A    between atoms: O_5  and  C_6
REMARK    5  A    between atoms: C_6  and  C_7
REMARK    6  A    between atoms: C_9  and  O_10
REMARK    7  A    between atoms: C_11  and  O_12
REMARK    8  A    between atoms: C_13  and  N_14
REMARK                            x       y       z     vdW  Elec       q    Type
REMARK                         _______ _______ _______ _____ _____    ______ ____
ROOT
ATOM      1  C   UNL     1      25.410  -2.053  51.562  0.00  0.00    +0.178 C 
ATOM      2  O   UNL     1      24.638  -2.930  50.764  0.00  0.00    -0.346 OA
ATOM      3  C   UNL     1      25.063  -0.602  51.198  0.00  0.00    +0.178 C 
ATOM      4  C   UNL     1      23.682  -0.741  50.601  0.00  0.00    +0.195 C 
ATOM      5  C   UNL     1      23.693  -2.164  50.044  0.00  0.00    +0.253 C 
ENDROOT
BRANCH   5   6
ATOM      6  N   UNL     1      22.365  -2.770  50.151  0.00  0.00    -0.285 N 
ATOM      7  C   UNL     1      21.606  -3.313  49.161  0.00  0.00    +0.203 A 
ATOM      8  N   UNL     1      20.460  -3.891  49.617  0.00  0.00    -0.229 NA
ATOM      9  C   UNL     1      20.539  -3.696  50.947  0.00  0.00    +0.172 A 
ATOM     10  C   UNL     1      19.666  -4.094  51.949  0.00  0.00    +0.280 A 
ATOM     11  O   UNL     1      18.603  -4.714  51.680  0.00  0.00    -0.265 OA
ATOM     12  N   UNL     1      19.997  -3.795  53.243  0.00  0.00    -0.293 N 
ATOM     13  C   UNL     1      21.163  -3.128  53.542  0.00  0.00    +0.195 A 
ATOM     14  N   UNL     1      21.493  -2.832  54.899  0.00  0.00    -0.329 N 
ATOM     15  N   UNL     1      22.016  -2.745  52.542  0.00  0.00    -0.196 NA
ATOM     16  C   UNL     1      21.674  -3.037  51.265  0.00  0.00    +0.171 A 
ATOM     17  H   UNL     1      19.355  -4.085  54.015  0.00  0.00    +0.172 HD
ATOM     18  H   UNL     1      22.377  -2.328  55.129  0.00  0.00    +0.145 HD
ATOM     19  H   UNL     1      20.857  -3.116  55.677  0.00  0.00    +0.145 HD
ENDBRANCH   5   6
BRANCH   3  20
ATOM     20  O   UNL     1      25.992  -0.067  50.282  0.00  0.00    -0.386 OA
ATOM     21  H   UNL     1      26.257  -0.785  49.649  0.00  0.00    +0.210 HD
ENDBRANCH   3  20
BRANCH   4  22
ATOM     22  O   UNL     1      23.382   0.243  49.638  0.00  0.00    -0.385 OA
ATOM     23  H   UNL     1      22.738  -0.135  48.985  0.00  0.00    +0.210 HD
ENDBRANCH   4  22
BRANCH   1  24
ATOM     24  C   UNL     1      25.135  -2.345  53.043  0.00  0.00    +0.206 C 
BRANCH  24  25
ATOM     25  O   UNL     1      24.782  -1.147  53.692  0.00  0.00    -0.284 OA
BRANCH  25  26
ATOM     26  P   UNL     1      25.233  -1.264  55.334  0.00  0.00    +0.472 P 
ATOM     27  O   UNL     1      26.042  -0.050  55.736  0.00  0.00    -0.228 OA
BRANCH  26  28
ATOM     28  O   UNL     1      26.137  -2.672  55.603  0.00  0.00    -0.303 OA
ATOM     29  H   UNL     1      27.065  -2.438  55.348  0.00  0.00    +0.222 HD
ENDBRANCH  26  28
BRANCH  26  30
ATOM     30  O   UNL     1      23.833  -1.330  56.280  0.00  0.00    -0.303 OA
ATOM     31  H   UNL     1      23.512  -2.263  56.193  0.00  0.00    +0.222 HD
ENDBRANCH  26  30
ENDBRANCH  25  26
ENDBRANCH  24  25
ENDBRANCH   1  24
TORSDOF 8
ENDMDL
MODEL 9
REMARK VINA RESULT:    -6.394      2.749      4.189
REMARK INTER + INTRA:          -9.587
REMARK INTER:                  -8.765
REMARK INTRA:                  -0.822
REMARK UNBOUND:                -0.951
REMARK  Name = 5GP
REMARK  8 active torsions:
REMARK  status: ('A' for Active; 'I' for Inactive)
REMARK    1  A    between atoms: P_1  and  O_3
REMARK    2  A    between atoms: P_1  and  O_4
REMARK    3  A    between atoms: P_1  and  O_5
REMARK    4  A    between atoms: O_5  and  C_6
REMARK    5  A    between atoms: C_6  and  C_7
REMARK    6  A    between atoms: C_9  and  O_10
REMARK    7  A    between atoms: C_11  and  O_12
REMARK    8  A    between atoms: C_13  and  N_14
REMARK                            x       y       z     vdW  Elec       q    Type
REMARK                         _______ _______ _______ _____ _____    ______ ____
ROOT
ATOM      1  C   UNL     1      24.073  -1.018  52.367  0.00  0.00    +0.178 C 
ATOM      2  O   UNL     1      25.396  -0.614  52.069  0.00  0.00    -0.346 OA
ATOM      3  C   UNL     1      23.373  -1.449  51.070  0.00  0.00    +0.178 C 
ATOM      4  C   UNL     1      24.539  -1.806  50.178  0.00  0.00    +0.195 C 
ATOM      5  C   UNL     1      25.663  -0.921  50.715  0.00  0.00    +0.253 C 
ENDROOT
BRANCH   5   6
ATOM      6  N   UNL     1      26.955  -1.599  50.597  0.00  0.00    -0.285 N 
ATOM      7  C   UNL     1      27.196  -2.930  50.456  0.00  0.00    +0.203 A 
ATOM      8  N   UNL     1      28.513  -3.222  50.264  0.00  0.00    -0.229 NA
ATOM      9  C   UNL     1      29.090  -2.006  50.280  0.00  0.00    +0.172 A 
ATOM     10  C   UNL     1      30.423  -1.661  50.105  0.00  0.00    +0.280 A 
ATOM     11  O   UNL     1      31.305  -2.541  49.922  0.00  0.00    -0.265 OA
ATOM     12  N   UNL     1      30.750  -0.332  50.134  0.00  0.00    -0.293 N 
ATOM     13  C   UNL     1      29.787   0.632  50.322  0.00  0.00    +0.195 A 
ATOM     14  N   UNL     1      30.149   2.013  50.343  0.00  0.00    -0.329 N 
ATOM     15  N   UNL     1      28.476   0.276  50.490  0.00  0.00    -0.196 NA
ATOM     16  C   UNL     1      28.165  -1.042  50.469  0.00  0.00    +0.171 A 
ATOM     17  H   UNL     1      31.747  -0.048  50.005  0.00  0.00    +0.172 HD
ATOM     18  H   UNL     1      29.420   2.747  50.484  0.00  0.00    +0.145 HD
ATOM     19  H   UNL     1      31.142   2.306  50.216  0.00  0.00    +0.145 HD
ENDBRANCH   5   6
BRANCH   3  20
ATOM     20  O   UNL     1      22.591  -0.403  50.537  0.00  0.00    -0.386 OA
ATOM     21  H   UNL     1      22.775  -0.339  49.563  0.00  0.00    +0.210 HD
ENDBRANCH   3  20
BRANCH   4  22
ATOM     22  O   UNL     1      24.278  -1.620  48.806  0.00  0.00    -0.385 OA
ATOM     23  H   UNL     1      24.560  -0.705  48.547  0.00  0.00    +0.210 HD
ENDBRANCH   4  22
BRANCH   1  24
ATOM     24  C   UNL     1      24.112  -2.157  53.394  0.00  0.00    +0.206 C 
BRANCH  24  25
ATOM     25  O   UNL     1      25.335  -2.109  54.091  0.00  0.00    -0.284 OA
BRANCH  25  26
ATOM     26  P   UNL     1      25.062  -1.398  55.618  0.00  0.00    +0.472 P 
ATOM     27  O   UNL     1      25.860  -0.118  55.742  0.00  0.00    -0.228 OA
BRANCH  26  28
ATOM     28  O   UNL     1      25.494  -2.469  56.858  0.00  0.00    -0.303 OA
ATOM     29  H   UNL     1      24.641  -2.713  57.298  0.00  0.00    +0.222 HD
ENDBRANCH  26  28
BRANCH  26  30
ATOM     30  O   UNL     1      23.416  -1.036  55.764  0.00  0.00    -0.303 OA
ATOM     31  H   UNL     1      23.069  -1.696  56.416  0.00  0.00    +0.222 HD
ENDBRANCH  26  30
ENDBRANCH  25  26
ENDBRANCH  24  25
ENDBRANCH   1  24
TORSDOF 8
ENDMDL
MODEL 10
REMARK VINA RESULT:    -6.370      2.397      4.066
REMARK INTER + INTRA:          -9.555
REMARK INTER:                  -8.865
REMARK INTRA:                  -0.691
REMARK UNBOUND:                -0.951
REMARK  Name = 5GP
REMARK  8 active torsions:
REMARK  status: ('A' for Active; 'I' for Inactive)
REMARK    1  A    between atoms: P_1  and  O_3
REMARK    2  A    between atoms: P_1  and  O_4
REMARK    3  A    between atoms: P_1  and  O_5
REMARK    4  A    between atoms: O_5  and  C_6
REMARK    5  A    between atoms: C_6  and  C_7
REMARK    6  A    between atoms: C_9  and  O_10
REMARK    7  A    between atoms: C_11  and  O_12
REMARK    8  A    between atoms: C_13  and  N_14
REMARK                            x       y       z     vdW  Elec       q    Type
REMARK                         _______ _______ _______ _____ _____    ______ ____
ROOT
ATOM      1  C   UNL     1      24.554  -3.551  54.857  0.00  0.00    +0.178 C 
ATOM      2  O   UNL     1      25.600  -3.396  53.916  0.00  0.00    -0.346 OA
ATOM      3  C   UNL     1      24.464  -2.286  55.723  0.00  0.00    +0.178 C 
ATOM      4  C   UNL     1      25.104  -1.243  54.838  0.00  0.00    +0.195 C 
ATOM      5  C   UNL     1      26.071  -2.064  53.986  0.00  0.00    +0.253 C 
ENDROOT
BRANCH   5   6
ATOM      6  N   UNL     1      26.183  -1.498  52.642  0.00  0.00    -0.285 N 
ATOM      7  C   UNL     1      27.306  -1.087  51.994  0.00  0.00    +0.203 A 
ATOM      8  N   UNL     1      27.076  -0.707  50.705  0.00  0.00    -0.229 NA
ATOM      9  C   UNL     1      25.752  -0.910  50.569  0.00  0.00    +0.172 A 
ATOM     10  C   UNL     1      24.942  -0.726  49.458  0.00  0.00    +0.280 A 
ATOM     11  O   UNL     1      25.412  -0.286  48.375  0.00  0.00    -0.265 OA
ATOM     12  N   UNL     1      23.616  -1.040  49.573  0.00  0.00    -0.293 N 
ATOM     13  C   UNL     1      23.101  -1.530  50.751  0.00  0.00    +0.195 A 
ATOM     14  N   UNL     1      21.715  -1.858  50.848  0.00  0.00    -0.329 N 
ATOM     15  N   UNL     1      23.914  -1.710  51.838  0.00  0.00    -0.196 NA
ATOM     16  C   UNL     1      25.223  -1.386  51.716  0.00  0.00    +0.171 A 
ATOM     17  H   UNL     1      22.986  -0.909  48.749  0.00  0.00    +0.172 HD
ATOM     18  H   UNL     1      21.322  -2.231  51.739  0.00  0.00    +0.145 HD
ATOM     19  H   UNL     1      21.079  -1.729  50.030  0.00  0.00    +0.145 HD
ENDBRANCH   5   6
BRANCH   3  20
ATOM     20  O   UNL     1      25.151  -2.450  56.943  0.00  0.00    -0.386 OA
ATOM     21  H   UNL     1      26.089  -2.147  56.818  0.00  0.00    +0.210 HD
ENDBRANCH   3  20
BRANCH   4  22
ATOM     22  O   UNL     1      25.724  -0.199  55.553  0.00  0.00    -0.385 OA
ATOM     23  H   UNL     1      26.473   0.160  55.010  0.00  0.00    +0.210 HD
ENDBRANCH   4  22
BRANCH   1  24
ATOM     24  C   UNL     1      23.241  -3.822  54.112  0.00  0.00    +0.206 C 
BRANCH  24  25
ATOM     25  O   UNL     1      22.235  -2.985  54.631  0.00  0.00    -0.284 OA
BRANCH  25  26
ATOM     26  P   UNL     1      20.716  -3.683  54.287  0.00  0.00    +0.472 P 
ATOM     27  O   UNL     1      20.469  -3.671  52.794  0.00  0.00    -0.228 OA
BRANCH  26  28
ATOM     28  O   UNL     1      19.480  -2.840  55.082  0.00  0.00    -0.303 OA
ATOM     29  H   UNL     1      18.643  -3.126  54.635  0.00  0.00    +0.222 HD
ENDBRANCH  26  28
BRANCH  26  30
ATOM     30  O   UNL     1      20.718  -5.284  54.832  0.00  0.00    -0.303 OA
ATOM     31  H   UNL     1      20.031  -5.739  54.281  0.00  0.00    +0.222 HD
ENDBRANCH  26  30
ENDBRANCH  25  26
ENDBRANCH  24  25
ENDBRANCH   1  24
TORSDOF 8
ENDMDL
MODEL 11
REMARK VINA RESULT:    -6.279      5.113      7.232
REMARK INTER + INTRA:          -9.431
REMARK INTER:                  -8.859
REMARK INTRA:                  -0.572
REMARK UNBOUND:                -0.951
REMARK  Name = 5GP
REMARK  8 active torsions:
REMARK  status: ('A' for Active; 'I' for Inactive)
REMARK    1  A    between atoms: P_1  and  O_3
REMARK    2  A    between atoms: P_1  and  O_4
REMARK    3  A    between atoms: P_1  and  O_5
REMARK    4  A    between atoms: O_5  and  C_6
REMARK    5  A    between atoms: C_6  and  C_7
REMARK    6  A    between atoms: C_9  and  O_10
REMARK    7  A    between atoms: C_11  and  O_12
REMARK    8  A    between atoms: C_13  and  N_14
REMARK                            x       y       z     vdW  Elec       q    Type
REMARK                         _______ _______ _______ _____ _____    ______ ____
ROOT
ATOM      1  C   UNL     1      30.177  -1.407  50.614  0.00  0.00    +0.178 C 
ATOM      2  O   UNL     1      30.542  -0.050  50.447  0.00  0.00    -0.346 OA
ATOM      3  C   UNL     1      28.663  -1.551  50.405  0.00  0.00    +0.178 C 
ATOM      4  C   UNL     1      28.338  -0.341  49.561  0.00  0.00    +0.195 C 
ATOM      5  C   UNL     1      29.417   0.660  49.970  0.00  0.00    +0.253 C 
ENDROOT
BRANCH   5   6
ATOM      6  N   UNL     1      29.797   1.502  48.834  0.00  0.00    -0.285 N 
ATOM      7  C   UNL     1      29.599   1.266  47.510  0.00  0.00    +0.203 A 
ATOM      8  N   UNL     1      29.978   2.306  46.714  0.00  0.00    -0.229 NA
ATOM      9  C   UNL     1      30.414   3.216  47.606  0.00  0.00    +0.172 A 
ATOM     10  C   UNL     1      30.901   4.497  47.391  0.00  0.00    +0.280 A 
ATOM     11  O   UNL     1      31.014   4.964  46.226  0.00  0.00    -0.265 OA
ATOM     12  N   UNL     1      31.252   5.241  48.484  0.00  0.00    -0.293 N 
ATOM     13  C   UNL     1      31.120   4.738  49.758  0.00  0.00    +0.195 A 
ATOM     14  N   UNL     1      31.486   5.533  50.885  0.00  0.00    -0.329 N 
ATOM     15  N   UNL     1      30.635   3.473  49.954  0.00  0.00    -0.196 NA
ATOM     16  C   UNL     1      30.299   2.742  48.864  0.00  0.00    +0.171 A 
ATOM     17  H   UNL     1      31.622   6.209  48.346  0.00  0.00    +0.172 HD
ATOM     18  H   UNL     1      31.386   5.155  51.852  0.00  0.00    +0.145 HD
ATOM     19  H   UNL     1      31.858   6.500  50.757  0.00  0.00    +0.145 HD
ENDBRANCH   5   6
BRANCH   3  20
ATOM     20  O   UNL     1      27.972  -1.548  51.634  0.00  0.00    -0.386 OA
ATOM     21  H   UNL     1      28.016  -2.462  52.020  0.00  0.00    +0.210 HD
ENDBRANCH   3  20
BRANCH   4  22
ATOM     22  O   UNL     1      27.024   0.136  49.740  0.00  0.00    -0.385 OA
ATOM     23  H   UNL     1      26.454  -0.212  49.006  0.00  0.00    +0.210 HD
ENDBRANCH   4  22
BRANCH   1  24
ATOM     24  C   UNL     1      30.970  -2.269  49.623  0.00  0.00    +0.206 C 
BRANCH  24  25
ATOM     25  O   UNL     1      32.151  -2.717  50.244  0.00  0.00    -0.284 OA
BRANCH  25  26
ATOM     26  P   UNL     1      31.959  -4.363  50.653  0.00  0.00    +0.472 P 
ATOM     27  O   UNL     1      32.939  -4.742  51.743  0.00  0.00    -0.228 OA
BRANCH  26  28
ATOM     28  O   UNL     1      32.200  -5.346  49.294  0.00  0.00    -0.303 OA
ATOM     29  H   UNL     1      31.291  -5.608  49.000  0.00  0.00    +0.222 HD
ENDBRANCH  26  28
BRANCH  26  30
ATOM     30  O   UNL     1      30.384  -4.602  51.223  0.00  0.00    -0.303 OA
ATOM     31  H   UNL     1      30.457  -4.526  52.208  0.00  0.00    +0.222 HD
ENDBRANCH  26  30
ENDBRANCH  25  26
ENDBRANCH  24  25
ENDBRANCH   1  24
TORSDOF 8
ENDMDL
MODEL 12
REMARK VINA RESULT:    -6.188      1.943      2.988
REMARK INTER + INTRA:          -9.310
REMARK INTER:                  -8.985
REMARK INTRA:                  -0.325
REMARK UNBOUND:                -0.951
REMARK  Name = 5GP
REMARK  8 active torsions:
REMARK  status: ('A' for Active; 'I' for Inactive)
REMARK    1  A    between atoms: P_1  and  O_3
REMARK    2  A    between atoms: P_1  and  O_4
REMARK    3  A    between atoms: P_1  and  O_5
REMARK    4  A    between atoms: O_5  and  C_6
REMARK    5  A    between atoms: C_6  and  C_7
REMARK    6  A    between atoms: C_9  and  O_10
REMARK    7  A    between atoms: C_11  and  O_12
REMARK    8  A    between atoms: C_13  and  N_14
REMARK                            x       y       z     vdW  Elec       q    Type
REMARK                         _______ _______ _______ _____ _____    ______ ____
ROOT
ATOM      1  C   UNL     1      23.813  -1.381  52.819  0.00  0.00    +0.178 C 
ATOM      2  O   UNL     1      23.836  -0.246  51.974  0.00  0.00    -0.346 OA
ATOM      3  C   UNL     1      23.252  -2.579  52.039  0.00  0.00    +0.178 C 
ATOM      4  C   UNL     1      23.520  -2.185  50.606  0.00  0.00    +0.195 C 
ATOM      5  C   UNL     1      23.505  -0.658  50.663  0.00  0.00    +0.253 C 
ENDROOT
BRANCH   5   6
ATOM      6  N   UNL     1      24.455  -0.096  49.702  0.00  0.00    -0.285 N 
ATOM      7  C   UNL     1      24.211   0.782  48.693  0.00  0.00    +0.203 A 
ATOM      8  N   UNL     1      25.340   1.190  48.048  0.00  0.00    -0.229 NA
ATOM      9  C   UNL     1      26.312   0.533  48.710  0.00  0.00    +0.172 A 
ATOM     10  C   UNL     1      27.686   0.570  48.522  0.00  0.00    +0.280 A 
ATOM     11  O   UNL     1      28.200   1.272  47.611  0.00  0.00    -0.265 OA
ATOM     12  N   UNL     1      28.467  -0.177  49.360  0.00  0.00    -0.293 N 
ATOM     13  C   UNL     1      27.910  -0.936  50.363  0.00  0.00    +0.195 A 
ATOM     14  N   UNL     1      28.744  -1.703  51.231  0.00  0.00    -0.329 N 
ATOM     15  N   UNL     1      26.552  -0.960  50.538  0.00  0.00    -0.196 NA
ATOM     16  C   UNL     1      25.787  -0.224  49.696  0.00  0.00    +0.171 A 
ATOM     17  H   UNL     1      29.506  -0.165  49.238  0.00  0.00    +0.172 HD
ATOM     18  H   UNL     1      28.324  -2.279  51.994  0.00  0.00    +0.145 HD
ATOM     19  H   UNL     1      29.781  -1.698  51.115  0.00  0.00    +0.145 HD
ENDBRANCH   5   6
BRANCH   3  20
ATOM     20  O   UNL     1      21.877  -2.759  52.297  0.00  0.00    -0.386 OA
ATOM     21  H   UNL     1      21.439  -3.065  51.460  0.00  0.00    +0.210 HD
ENDBRANCH   3  20
BRANCH   4  22
ATOM     22  O   UNL     1      22.598  -2.727  49.689  0.00  0.00    -0.385 OA
ATOM     23  H   UNL     1      21.770  -2.974  50.176  0.00  0.00    +0.210 HD
ENDBRANCH   4  22
BRANCH   1  24
ATOM     24  C   UNL     1      25.232  -1.656  53.333  0.00  0.00    +0.206 C 
BRANCH  24  25
ATOM     25  O   UNL     1      25.158  -2.471  54.478  0.00  0.00    -0.284 OA
BRANCH  25  26
ATOM     26  P   UNL     1      25.071  -1.467  55.855  0.00  0.00    +0.472 P 
ATOM     27  O   UNL     1      25.909  -0.225  55.642  0.00  0.00    -0.228 OA
BRANCH  26  28
ATOM     28  O   UNL     1      25.610  -2.296  57.231  0.00  0.00    -0.303 OA
ATOM     29  H   UNL     1      26.562  -2.040  57.332  0.00  0.00    +0.222 HD
ENDBRANCH  26  28
BRANCH  26  30
ATOM     30  O   UNL     1      23.460  -1.010  56.095  0.00  0.00    -0.303 OA
ATOM     31  H   UNL     1      23.133  -1.603  56.817  0.00  0.00    +0.222 HD
ENDBRANCH  26  30
ENDBRANCH  25  26
ENDBRANCH  24  25
ENDBRANCH   1  24
TORSDOF 8
ENDMDL
MODEL 13
REMARK VINA RESULT:    -6.179      3.209      6.521
REMARK INTER + INTRA:          -9.296
REMARK INTER:                  -8.302
REMARK INTRA:                  -0.994
REMARK UNBOUND:                -0.951
REMARK  Name = 5GP
REMARK  8 active torsions:
REMARK  status: ('A' for Active; 'I' for Inactive)
REMARK    1  A    between atoms: P_1  and  O_3
REMARK    2  A    between atoms: P_1  and  O_4
REMARK    3  A    between atoms: P_1  and  O_5
REMARK    4  A    between atoms: O_5  and  C_6
REMARK    5  A    between atoms: C_6  and  C_7
REMARK    6  A    between atoms: C_9  and  O_10
REMARK    7  A    between atoms: C_11  and  O_12
REMARK    8  A    between atoms: C_13  and  N_14
REMARK                            x       y       z     vdW  Elec       q    Type
REMARK                         _______ _______ _______ _____ _____    ______ ____
ROOT
ATOM      1  C   UNL     1      23.841  -2.401  48.411  0.00  0.00    +0.178 C 
ATOM      2  O   UNL     1      24.380  -2.951  49.598  0.00  0.00    -0.346 OA
ATOM      3  C   UNL     1      22.371  -2.027  48.651  0.00  0.00    +0.178 C 
ATOM      4  C   UNL     1      22.322  -1.862  50.152  0.00  0.00    +0.195 C 
ATOM      5  C   UNL     1      23.432  -2.794  50.635  0.00  0.00    +0.253 C 
ENDROOT
BRANCH   5   6
ATOM      6  N   UNL     1      24.077  -2.252  51.831  0.00  0.00    -0.285 N 
ATOM      7  C   UNL     1      25.192  -1.477  51.907  0.00  0.00    +0.203 A 
ATOM      8  N   UNL     1      25.467  -1.051  53.171  0.00  0.00    -0.229 NA
ATOM      9  C   UNL     1      24.462  -1.587  53.890  0.00  0.00    +0.172 A 
ATOM     10  C   UNL     1      24.191  -1.476  55.245  0.00  0.00    +0.280 A 
ATOM     11  O   UNL     1      24.947  -0.819  56.010  0.00  0.00    -0.265 OA
ATOM     12  N   UNL     1      23.073  -2.100  55.728  0.00  0.00    -0.293 N 
ATOM     13  C   UNL     1      22.239  -2.809  54.895  0.00  0.00    +0.195 A 
ATOM     14  N   UNL     1      21.074  -3.447  55.419  0.00  0.00    -0.329 N 
ATOM     15  N   UNL     1      22.518  -2.907  53.558  0.00  0.00    -0.196 NA
ATOM     16  C   UNL     1      23.633  -2.294  53.093  0.00  0.00    +0.171 A 
ATOM     17  H   UNL     1      22.849  -2.030  56.747  0.00  0.00    +0.172 HD
ATOM     18  H   UNL     1      20.439  -3.984  54.789  0.00  0.00    +0.145 HD
ATOM     19  H   UNL     1      20.843  -3.384  56.434  0.00  0.00    +0.145 HD
ENDBRANCH   5   6
BRANCH   3  20
ATOM     20  O   UNL     1      21.502  -3.040  48.195  0.00  0.00    -0.386 OA
ATOM     21  H   UNL     1      20.570  -2.776  48.414  0.00  0.00    +0.210 HD
ENDBRANCH   3  20
BRANCH   4  22
ATOM     22  O   UNL     1      21.059  -2.146  50.710  0.00  0.00    -0.385 OA
ATOM     23  H   UNL     1      20.993  -1.701  51.595  0.00  0.00    +0.210 HD
ENDBRANCH   4  22
BRANCH   1  24
ATOM     24  C   UNL     1      24.674  -1.182  47.995  0.00  0.00    +0.206 C 
BRANCH  24  25
ATOM     25  O   UNL     1      23.867  -0.030  48.053  0.00  0.00    -0.284 OA
BRANCH  25  26
ATOM     26  P   UNL     1      24.685   1.163  48.958  0.00  0.00    +0.472 P 
ATOM     27  O   UNL     1      24.593   2.499  48.254  0.00  0.00    -0.228 OA
BRANCH  26  28
ATOM     28  O   UNL     1      26.310   0.736  49.173  0.00  0.00    -0.303 OA
ATOM     29  H   UNL     1      26.584   1.175  50.018  0.00  0.00    +0.222 HD
ENDBRANCH  26  28
BRANCH  26  30
ATOM     30  O   UNL     1      23.953   1.291  50.478  0.00  0.00    -0.303 OA
ATOM     31  H   UNL     1      24.515   0.737  51.077  0.00  0.00    +0.222 HD
ENDBRANCH  26  30
ENDBRANCH  25  26
ENDBRANCH  24  25
ENDBRANCH   1  24
TORSDOF 8
ENDMDL
MODEL 14
REMARK VINA RESULT:    -6.154      3.129      5.759
REMARK INTER + INTRA:          -9.263
REMARK INTER:                  -8.677
REMARK INTRA:                  -0.586
REMARK UNBOUND:                -0.951
REMARK  Name = 5GP
REMARK  8 active torsions:
REMARK  status: ('A' for Active; 'I' for Inactive)
REMARK    1  A    between atoms: P_1  and  O_3
REMARK    2  A    between atoms: P_1  and  O_4
REMARK    3  A    between atoms: P_1  and  O_5
REMARK    4  A    between atoms: O_5  and  C_6
REMARK    5  A    between atoms: C_6  and  C_7
REMARK    6  A    between atoms: C_9  and  O_10
REMARK    7  A    between atoms: C_11  and  O_12
REMARK    8  A    between atoms: C_13  and  N_14
REMARK                            x       y       z     vdW  Elec       q    Type
REMARK                         _______ _______ _______ _____ _____    ______ ____
ROOT
ATOM      1  C   UNL     1      23.813  -3.257  49.255  0.00  0.00    +0.178 C 
ATOM      2  O   UNL     1      23.859  -3.781  50.569  0.00  0.00    -0.346 OA
ATOM      3  C   UNL     1      22.349  -3.032  48.852  0.00  0.00    +0.178 C 
ATOM      4  C   UNL     1      21.662  -2.907  50.192  0.00  0.00    +0.195 C 
ATOM      5  C   UNL     1      22.554  -3.740  51.112  0.00  0.00    +0.253 C 
ENDROOT
BRANCH   5   6
ATOM      6  N   UNL     1      22.586  -3.167  52.458  0.00  0.00    -0.285 N 
ATOM      7  C   UNL     1      21.642  -3.258  53.433  0.00  0.00    +0.203 A 
ATOM      8  N   UNL     1      22.030  -2.699  54.613  0.00  0.00    -0.229 NA
ATOM      9  C   UNL     1      23.273  -2.260  54.337  0.00  0.00    +0.172 A 
ATOM     10  C   UNL     1      24.186  -1.625  55.165  0.00  0.00    +0.280 A 
ATOM     11  O   UNL     1      23.902  -1.352  56.362  0.00  0.00    -0.265 OA
ATOM     12  N   UNL     1      25.411  -1.307  54.644  0.00  0.00    -0.293 N 
ATOM     13  C   UNL     1      25.729  -1.613  53.341  0.00  0.00    +0.195 A 
ATOM     14  N   UNL     1      27.015  -1.278  52.818  0.00  0.00    -0.329 N 
ATOM     15  N   UNL     1      24.818  -2.243  52.537  0.00  0.00    -0.196 NA
ATOM     16  C   UNL     1      23.605  -2.545  53.061  0.00  0.00    +0.171 A 
ATOM     17  H   UNL     1      26.116  -0.828  55.249  0.00  0.00    +0.172 HD
ATOM     18  H   UNL     1      27.259  -1.511  51.831  0.00  0.00    +0.145 HD
ATOM     19  H   UNL     1      27.724  -0.799  53.415  0.00  0.00    +0.145 HD
ENDBRANCH   5   6
BRANCH   3  20
ATOM     20  O   UNL     1      21.853  -4.112  48.094  0.00  0.00    -0.386 OA
ATOM     21  H   UNL     1      22.171  -4.957  48.507  0.00  0.00    +0.210 HD
ENDBRANCH   3  20
BRANCH   4  22
ATOM     22  O   UNL     1      20.316  -3.325  50.178  0.00  0.00    -0.385 OA
ATOM     23  H   UNL     1      19.752  -2.598  50.549  0.00  0.00    +0.210 HD
ENDBRANCH   4  22
BRANCH   1  24
ATOM     24  C   UNL     1      24.622  -1.954  49.202  0.00  0.00    +0.206 C 
BRANCH  24  25
ATOM     25  O   UNL     1      23.807  -0.926  48.690  0.00  0.00    -0.284 OA
BRANCH  25  26
ATOM     26  P   UNL     1      23.896   0.413  49.743  0.00  0.00    +0.472 P 
ATOM     27  O   UNL     1      22.612   0.534  50.535  0.00  0.00    -0.228 OA
BRANCH  26  28
ATOM     28  O   UNL     1      24.171   1.839  48.870  0.00  0.00    -0.303 OA
ATOM     29  H   UNL     1      25.060   1.719  48.451  0.00  0.00    +0.222 HD
ENDBRANCH  26  28
BRANCH  26  30
ATOM     30  O   UNL     1      25.183   0.178  50.816  0.00  0.00    -0.303 OA
ATOM     31  H   UNL     1      25.257   1.031  51.313  0.00  0.00    +0.222 HD
ENDBRANCH  26  30
ENDBRANCH  25  26
ENDBRANCH  24  25
ENDBRANCH   1  24
TORSDOF 8
ENDMDL
MODEL 15
REMARK VINA RESULT:    -6.120      4.388      6.617
REMARK INTER + INTRA:          -9.217
REMARK INTER:                  -8.464
REMARK INTRA:                  -0.753
REMARK UNBOUND:                -0.951
REMARK  Name = 5GP
REMARK  8 active torsions:
REMARK  status: ('A' for Active; 'I' for Inactive)
REMARK    1  A    between atoms: P_1  and  O_3
REMARK    2  A    between atoms: P_1  and  O_4
REMARK    3  A    between atoms: P_1  and  O_5
REMARK    4  A    between atoms: O_5  and  C_6
REMARK    5  A    between atoms: C_6  and  C_7
REMARK    6  A    between atoms: C_9  and  O_10
REMARK    7  A    between atoms: C_11  and  O_12
REMARK    8  A    between atoms: C_13  and  N_14
REMARK                            x       y       z     vdW  Elec       q    Type
REMARK                         _______ _______ _______ _____ _____    ______ ____
ROOT
ATOM      1  C   UNL     1      30.796  -2.494  49.064  0.00  0.00    +0.178 C 
ATOM      2  O   UNL     1      29.407  -2.688  48.875  0.00  0.00    -0.346 OA
ATOM      3  C   UNL     1      31.099  -0.989  49.069  0.00  0.00    +0.178 C 
ATOM      4  C   UNL     1      29.766  -0.393  49.455  0.00  0.00    +0.195 C 
ATOM      5  C   UNL     1      28.767  -1.429  48.940  0.00  0.00    +0.253 C 
ENDROOT
BRANCH   5   6
ATOM      6  N   UNL     1      27.599  -1.502  49.818  0.00  0.00    -0.285 N 
ATOM      7  C   UNL     1      27.426  -2.273  50.925  0.00  0.00    +0.203 A 
ATOM      8  N   UNL     1      26.259  -2.021  51.581  0.00  0.00    -0.229 NA
ATOM      9  C   UNL     1      25.707  -1.043  50.837  0.00  0.00    +0.172 A 
ATOM     10  C   UNL     1      24.517  -0.356  51.027  0.00  0.00    +0.280 A 
ATOM     11  O   UNL     1      23.756  -0.626  51.994  0.00  0.00    -0.265 OA
ATOM     12  N   UNL     1      24.196   0.629  50.134  0.00  0.00    -0.293 N 
ATOM     13  C   UNL     1      25.031   0.935  49.083  0.00  0.00    +0.195 A 
ATOM     14  N   UNL     1      24.680   1.971  48.166  0.00  0.00    -0.329 N 
ATOM     15  N   UNL     1      26.204   0.250  48.911  0.00  0.00    -0.196 NA
ATOM     16  C   UNL     1      26.507  -0.729  49.796  0.00  0.00    +0.171 A 
ATOM     17  H   UNL     1      23.304   1.160  50.257  0.00  0.00    +0.172 HD
ATOM     18  H   UNL     1      25.312   2.206  47.369  0.00  0.00    +0.145 HD
ATOM     19  H   UNL     1      23.791   2.506  48.280  0.00  0.00    +0.145 HD
ENDBRANCH   5   6
BRANCH   3  20
ATOM     20  O   UNL     1      31.537  -0.549  47.803  0.00  0.00    -0.386 OA
ATOM     21  H   UNL     1      30.812  -0.012  47.390  0.00  0.00    +0.210 HD
ENDBRANCH   3  20
BRANCH   4  22
ATOM     22  O   UNL     1      29.556   0.901  48.940  0.00  0.00    -0.385 OA
ATOM     23  H   UNL     1      28.853   0.858  48.242  0.00  0.00    +0.210 HD
ENDBRANCH   4  22
BRANCH   1  24
ATOM     24  C   UNL     1      31.225  -3.162  50.377  0.00  0.00    +0.206 C 
BRANCH  24  25
ATOM     25  O   UNL     1      32.625  -3.080  50.501  0.00  0.00    -0.284 OA
BRANCH  25  26
ATOM     26  P   UNL     1      33.223  -4.616  50.941  0.00  0.00    +0.472 P 
ATOM     27  O   UNL     1      32.073  -5.569  51.180  0.00  0.00    -0.228 OA
BRANCH  26  28
ATOM     28  O   UNL     1      34.179  -4.505  52.336  0.00  0.00    -0.303 OA
ATOM     29  H   UNL     1      34.854  -5.224  52.245  0.00  0.00    +0.222 HD
ENDBRANCH  26  28
BRANCH  26  30
ATOM     30  O   UNL     1      34.177  -5.211  49.677  0.00  0.00    -0.303 OA
ATOM     31  H   UNL     1      33.687  -6.004  49.342  0.00  0.00    +0.222 HD
ENDBRANCH  26  30
ENDBRANCH  25  26
ENDBRANCH  24  25
ENDBRANCH   1  24
TORSDOF 8
ENDMDL
MODEL 16
REMARK VINA RESULT:    -6.104      2.509      3.473
REMARK INTER + INTRA:          -9.196
REMARK INTER:                  -8.374
REMARK INTRA:                  -0.822
REMARK UNBOUND:                -0.951
REMARK  Name = 5GP
REMARK  8 active torsions:
REMARK  status: ('A' for Active; 'I' for Inactive)
REMARK    1  A    between atoms: P_1  and  O_3
REMARK    2  A    between atoms: P_1  and  O_4
REMARK    3  A    between atoms: P_1  and  O_5
REMARK    4  A    between atoms: O_5  and  C_6
REMARK    5  A    between atoms: C_6  and  C_7
REMARK    6  A    between atoms: C_9  and  O_10
REMARK    7  A    between atoms: C_11  and  O_12
REMARK    8  A    between atoms: C_13  and  N_14
REMARK                            x       y       z     vdW  Elec       q    Type
REMARK                         _______ _______ _______ _____ _____    ______ ____
ROOT
ATOM      1  C   UNL     1      24.304  -3.823  54.575  0.00  0.00    +0.178 C 
ATOM      2  O   UNL     1      25.200  -3.481  53.535  0.00  0.00    -0.346 OA
ATOM      3  C   UNL     1      23.946  -2.559  55.368  0.00  0.00    +0.178 C 
ATOM      4  C   UNL     1      24.222  -1.461  54.367  0.00  0.00    +0.195 C 
ATOM      5  C   UNL     1      25.307  -2.073  53.481  0.00  0.00    +0.253 C 
ENDROOT
BRANCH   5   6
ATOM      6  N   UNL     1      25.168  -1.608  52.100  0.00  0.00    -0.285 N 
ATOM      7  C   UNL     1      24.036  -1.530  51.350  0.00  0.00    +0.203 A 
ATOM      8  N   UNL     1      24.236  -0.950  50.133  0.00  0.00    -0.229 NA
ATOM      9  C   UNL     1      25.550  -0.655  50.158  0.00  0.00    +0.172 A 
ATOM     10  C   UNL     1      26.329  -0.024  49.200  0.00  0.00    +0.280 A 
ATOM     11  O   UNL     1      25.837   0.348  48.101  0.00  0.00    -0.265 OA
ATOM     12  N   UNL     1      27.650   0.188  49.487  0.00  0.00    -0.293 N 
ATOM     13  C   UNL     1      28.188  -0.207  50.690  0.00  0.00    +0.195 A 
ATOM     14  N   UNL     1      29.568   0.029  50.972  0.00  0.00    -0.329 N 
ATOM     15  N   UNL     1      27.405  -0.827  51.627  0.00  0.00    -0.196 NA
ATOM     16  C   UNL     1      26.101  -1.039  51.328  0.00  0.00    +0.171 A 
ATOM     17  H   UNL     1      28.257   0.662  48.780  0.00  0.00    +0.172 HD
ATOM     18  H   UNL     1      29.978  -0.268  51.884  0.00  0.00    +0.145 HD
ATOM     19  H   UNL     1      30.181   0.500  50.272  0.00  0.00    +0.145 HD
ENDBRANCH   5   6
BRANCH   3  20
ATOM     20  O   UNL     1      24.739  -2.438  56.528  0.00  0.00    -0.386 OA
ATOM     21  H   UNL     1      25.344  -1.659  56.414  0.00  0.00    +0.210 HD
ENDBRANCH   3  20
BRANCH   4  22
ATOM     22  O   UNL     1      24.596  -0.238  54.958  0.00  0.00    -0.385 OA
ATOM     23  H   UNL     1      24.169   0.504  54.457  0.00  0.00    +0.210 HD
ENDBRANCH   4  22
BRANCH   1  24
ATOM     24  C   UNL     1      23.058  -4.484  53.971  0.00  0.00    +0.206 C 
BRANCH  24  25
ATOM     25  O   UNL     1      21.972  -4.310  54.849  0.00  0.00    -0.284 OA
BRANCH  25  26
ATOM     26  P   UNL     1      20.634  -3.745  53.954  0.00  0.00    +0.472 P 
ATOM     27  O   UNL     1      21.111  -2.931  52.770  0.00  0.00    -0.228 OA
BRANCH  26  28
ATOM     28  O   UNL     1      19.620  -2.801  54.930  0.00  0.00    -0.303 OA
ATOM     29  H   UNL     1      19.069  -3.451  55.435  0.00  0.00    +0.222 HD
ENDBRANCH  26  28
BRANCH  26  30
ATOM     30  O   UNL     1      19.756  -5.075  53.388  0.00  0.00    -0.303 OA
ATOM     31  H   UNL     1      19.949  -5.800  54.035  0.00  0.00    +0.222 HD
ENDBRANCH  26  30
ENDBRANCH  25  26
ENDBRANCH  24  25
ENDBRANCH   1  24
TORSDOF 8
ENDMDL
MODEL 17
REMARK VINA RESULT:    -6.094      4.221      6.820
REMARK INTER + INTRA:          -9.183
REMARK INTER:                  -8.588
REMARK INTRA:                  -0.594
REMARK UNBOUND:                -0.951
REMARK  Name = 5GP
REMARK  8 active torsions:
REMARK  status: ('A' for Active; 'I' for Inactive)
REMARK    1  A    between atoms: P_1  and  O_3
REMARK    2  A    between atoms: P_1  and  O_4
REMARK    3  A    between atoms: P_1  and  O_5
REMARK    4  A    between atoms: O_5  and  C_6
REMARK    5  A    between atoms: C_6  and  C_7
REMARK    6  A    between atoms: C_9  and  O_10
REMARK    7  A    between atoms: C_11  and  O_12
REMARK    8  A    between atoms: C_13  and  N_14
REMARK                            x       y       z     vdW  Elec       q    Type
REMARK                         _______ _______ _______ _____ _____    ______ ____
ROOT
ATOM      1  C   UNL     1      29.836   0.473  50.471  0.00  0.00    +0.178 C 
ATOM      2  O   UNL     1      28.728   0.059  51.248  0.00  0.00    -0.346 OA
ATOM      3  C   UNL     1      30.260  -0.675  49.544  0.00  0.00    +0.178 C 
ATOM      4  C   UNL     1      28.994  -1.492  49.444  0.00  0.00    +0.195 C 
ATOM      5  C   UNL     1      28.291  -1.197  50.769  0.00  0.00    +0.253 C 
ENDROOT
BRANCH   5   6
ATOM      6  N   UNL     1      26.838  -1.192  50.592  0.00  0.00    -0.285 N 
ATOM      7  C   UNL     1      26.132  -1.229  49.430  0.00  0.00    +0.203 A 
ATOM      8  N   UNL     1      24.786  -1.321  49.620  0.00  0.00    -0.229 NA
ATOM      9  C   UNL     1      24.678  -1.352  50.962  0.00  0.00    +0.172 A 
ATOM     10  C   UNL     1      23.545  -1.468  51.752  0.00  0.00    +0.280 A 
ATOM     11  O   UNL     1      22.396  -1.538  51.238  0.00  0.00    -0.265 OA
ATOM     12  N   UNL     1      23.711  -1.509  53.110  0.00  0.00    -0.293 N 
ATOM     13  C   UNL     1      24.964  -1.444  53.674  0.00  0.00    +0.195 A 
ATOM     14  N   UNL     1      25.116  -1.494  55.093  0.00  0.00    -0.329 N 
ATOM     15  N   UNL     1      26.074  -1.332  52.881  0.00  0.00    -0.196 NA
ATOM     16  C   UNL     1      25.897  -1.283  51.539  0.00  0.00    +0.171 A 
ATOM     17  H   UNL     1      22.871  -1.596  53.726  0.00  0.00    +0.172 HD
ATOM     18  H   UNL     1      26.065  -1.447  55.523  0.00  0.00    +0.145 HD
ATOM     19  H   UNL     1      24.283  -1.580  55.715  0.00  0.00    +0.145 HD
ENDBRANCH   5   6
BRANCH   3  20
ATOM     20  O   UNL     1      31.330  -1.410  50.094  0.00  0.00    -0.386 OA
ATOM     21  H   UNL     1      31.871  -0.800  50.662  0.00  0.00    +0.210 HD
ENDBRANCH   3  20
BRANCH   4  22
ATOM     22  O   UNL     1      29.223  -2.864  49.217  0.00  0.00    -0.385 OA
ATOM     23  H   UNL     1      29.463  -2.995  48.263  0.00  0.00    +0.210 HD
ENDBRANCH   4  22
BRANCH   1  24
ATOM     24  C   UNL     1      29.454   1.730  49.678  0.00  0.00    +0.206 C 
BRANCH  24  25
ATOM     25  O   UNL     1      30.324   2.779  50.029  0.00  0.00    -0.284 OA
BRANCH  25  26
ATOM     26  P   UNL     1      30.400   3.881  48.729  0.00  0.00    +0.472 P 
ATOM     27  O   UNL     1      30.069   3.174  47.432  0.00  0.00    -0.228 OA
BRANCH  26  28
ATOM     28  O   UNL     1      31.941   4.578  48.627  0.00  0.00    -0.303 OA
ATOM     29  H   UNL     1      32.549   3.830  48.395  0.00  0.00    +0.222 HD
ENDBRANCH  26  28
BRANCH  26  30
ATOM     30  O   UNL     1      29.267   5.110  48.989  0.00  0.00    -0.303 OA
ATOM     31  H   UNL     1      29.685   5.924  48.611  0.00  0.00    +0.222 HD
ENDBRANCH  26  30
ENDBRANCH  25  26
ENDBRANCH  24  25
ENDBRANCH   1  24
TORSDOF 8
ENDMDL
MODEL 18
REMARK VINA RESULT:    -6.010      5.055      7.096
REMARK INTER + INTRA:          -9.068
REMARK INTER:                  -8.182
REMARK INTRA:                  -0.886
REMARK UNBOUND:                -0.951
REMARK  Name = 5GP
REMARK  8 active torsions:
REMARK  status: ('A' for Active; 'I' for Inactive)
REMARK    1  A    between atoms: P_1  and  O_3
REMARK    2  A    between atoms: P_1  and  O_4
REMARK    3  A    between atoms: P_1  and  O_5
REMARK    4  A    between atoms: O_5  and  C_6
REMARK    5  A    between atoms: C_6  and  C_7
REMARK    6  A    between atoms: C_9  and  O_10
REMARK    7  A    between atoms: C_11  and  O_12
REMARK    8  A    between atoms: C_13  and  N_14
REMARK                            x       y       z     vdW  Elec       q    Type
REMARK                         _______ _______ _______ _____ _____    ______ ____
ROOT
ATOM      1  C   UNL     1      28.359  -0.336  50.752  0.00  0.00    +0.178 C 
ATOM      2  O   UNL     1      29.275  -1.386  50.997  0.00  0.00    -0.346 OA
ATOM      3  C   UNL     1      28.908   0.562  49.634  0.00  0.00    +0.178 C 
ATOM      4  C   UNL     1      29.852  -0.368  48.909  0.00  0.00    +0.195 C 
ATOM      5  C   UNL     1      30.281  -1.342  50.006  0.00  0.00    +0.253 C 
ENDROOT
BRANCH   5   6
ATOM      6  N   UNL     1      30.502  -2.678  49.451  0.00  0.00    -0.285 N 
ATOM      7  C   UNL     1      29.987  -3.211  48.311  0.00  0.00    +0.203 A 
ATOM      8  N   UNL     1      30.480  -4.448  48.024  0.00  0.00    -0.229 NA
ATOM      9  C   UNL     1      31.342  -4.666  49.035  0.00  0.00    +0.172 A 
ATOM     10  C   UNL     1      32.169  -5.754  49.270  0.00  0.00    +0.280 A 
ATOM     11  O   UNL     1      32.173  -6.748  48.496  0.00  0.00    -0.265 OA
ATOM     12  N   UNL     1      32.985  -5.714  50.368  0.00  0.00    -0.293 N 
ATOM     13  C   UNL     1      32.991  -4.625  51.209  0.00  0.00    +0.195 A 
ATOM     14  N   UNL     1      33.855  -4.601  52.345  0.00  0.00    -0.329 N 
ATOM     15  N   UNL     1      32.171  -3.557  50.962  0.00  0.00    -0.196 NA
ATOM     16  C   UNL     1      31.361  -3.612  49.878  0.00  0.00    +0.171 A 
ATOM     17  H   UNL     1      33.617  -6.523  50.565  0.00  0.00    +0.172 HD
ATOM     18  H   UNL     1      33.862  -3.776  52.984  0.00  0.00    +0.145 HD
ATOM     19  H   UNL     1      34.488  -5.405  52.551  0.00  0.00    +0.145 HD
ENDBRANCH   5   6
BRANCH   3  20
ATOM     20  O   UNL     1      29.567   1.692  50.161  0.00  0.00    -0.386 OA
ATOM     21  H   UNL     1      28.906   2.427  50.249  0.00  0.00    +0.210 HD
ENDBRANCH   3  20
BRANCH   4  22
ATOM     22  O   UNL     1      30.928   0.294  48.285  0.00  0.00    -0.385 OA
ATOM     23  H   UNL     1      30.602   1.152  47.910  0.00  0.00    +0.210 HD
ENDBRANCH   4  22
BRANCH   1  24
ATOM     24  C   UNL     1      26.995  -0.932  50.381  0.00  0.00    +0.206 C 
BRANCH  24  25
ATOM     25  O   UNL     1      26.051  -0.570  51.361  0.00  0.00    -0.284 OA
BRANCH  25  26
ATOM     26  P   UNL     1      25.930  -1.840  52.494  0.00  0.00    +0.472 P 
ATOM     27  O   UNL     1      26.298  -1.338  53.873  0.00  0.00    -0.228 OA
BRANCH  26  28
ATOM     28  O   UNL     1      26.945  -3.125  52.059  0.00  0.00    -0.303 OA
ATOM     29  H   UNL     1      26.436  -3.639  51.382  0.00  0.00    +0.222 HD
ENDBRANCH  26  28
BRANCH  26  30
ATOM     30  O   UNL     1      24.332  -2.396  52.520  0.00  0.00    -0.303 OA
ATOM     31  H   UNL     1      24.056  -2.416  51.569  0.00  0.00    +0.222 HD
ENDBRANCH  26  30
ENDBRANCH  25  26
ENDBRANCH  24  25
ENDBRANCH   1  24
TORSDOF 8
ENDMDL
MODEL 19
REMARK VINA RESULT:    -5.972      7.435      9.732
REMARK INTER + INTRA:          -9.018
REMARK INTER:                  -8.326
REMARK INTRA:                  -0.691
REMARK UNBOUND:                -0.951
REMARK  Name = 5GP
REMARK  8 active torsions:
REMARK  status: ('A' for Active; 'I' for Inactive)
REMARK    1  A    between atoms: P_1  and  O_3
REMARK    2  A    between atoms: P_1  and  O_4
REMARK    3  A    between atoms: P_1  and  O_5
REMARK    4  A    between atoms: O_5  and  C_6
REMARK    5  A    between atoms: C_6  and  C_7
REMARK    6  A    between atoms: C_9  and  O_10
REMARK    7  A    between atoms: C_11  and  O_12
REMARK    8  A    between atoms: C_13  and  N_14
REMARK                            x       y       z     vdW  Elec       q    Type
REMARK                         _______ _______ _______ _____ _____    ______ ____
ROOT
ATOM      1  C   UNL     1      34.339  -3.544  49.390  0.00  0.00    +0.178 C 
ATOM      2  O   UNL     1      33.050  -2.965  49.463  0.00  0.00    -0.346 OA
ATOM      3  C   UNL     1      34.651  -4.249  50.718  0.00  0.00    +0.178 C 
ATOM      4  C   UNL     1      33.271  -4.516  51.273  0.00  0.00    +0.195 C 
ATOM      5  C   UNL     1      32.434  -3.394  50.661  0.00  0.00    +0.253 C 
ENDROOT
BRANCH   5   6
ATOM      6  N   UNL     1      31.071  -3.854  50.391  0.00  0.00    -0.285 N 
ATOM      7  C   UNL     1      30.625  -5.133  50.266  0.00  0.00    +0.203 A 
ATOM      8  N   UNL     1      29.273  -5.220  50.121  0.00  0.00    -0.229 NA
ATOM      9  C   UNL     1      28.886  -3.931  50.173  0.00  0.00    +0.172 A 
ATOM     10  C   UNL     1      27.611  -3.391  50.108  0.00  0.00    +0.280 A 
ATOM     11  O   UNL     1      26.598  -4.126  49.957  0.00  0.00    -0.265 OA
ATOM     12  N   UNL     1      27.483  -2.033  50.219  0.00  0.00    -0.293 N 
ATOM     13  C   UNL     1      28.585  -1.228  50.396  0.00  0.00    +0.195 A 
ATOM     14  N   UNL     1      28.430   0.186  50.515  0.00  0.00    -0.329 N 
ATOM     15  N   UNL     1      29.838  -1.777  50.461  0.00  0.00    -0.196 NA
ATOM     16  C   UNL     1      29.953  -3.121  50.340  0.00  0.00    +0.171 A 
ATOM     17  H   UNL     1      26.531  -1.603  50.173  0.00  0.00    +0.172 HD
ATOM     18  H   UNL     1      29.263   0.798  50.651  0.00  0.00    +0.145 HD
ATOM     19  H   UNL     1      27.483   0.623  50.469  0.00  0.00    +0.145 HD
ENDBRANCH   5   6
BRANCH   3  20
ATOM     20  O   UNL     1      35.420  -3.427  51.568  0.00  0.00    -0.386 OA
ATOM     21  H   UNL     1      34.997  -3.423  52.467  0.00  0.00    +0.210 HD
ENDBRANCH   3  20
BRANCH   4  22
ATOM     22  O   UNL     1      33.225  -4.555  52.680  0.00  0.00    -0.385 OA
ATOM     23  H   UNL     1      34.136  -4.745  53.025  0.00  0.00    +0.210 HD
ENDBRANCH   4  22
BRANCH   1  24
ATOM     24  C   UNL     1      34.389  -4.519  48.207  0.00  0.00    +0.206 C 
BRANCH  24  25
ATOM     25  O   UNL     1      35.531  -5.334  48.328  0.00  0.00    -0.284 OA
BRANCH  25  26
ATOM     26  P   UNL     1      36.519  -5.091  46.958  0.00  0.00    +0.472 P 
ATOM     27  O   UNL     1      35.797  -4.227  45.947  0.00  0.00    -0.228 OA
BRANCH  26  28
ATOM     28  O   UNL     1      36.935  -6.575  46.254  0.00  0.00    -0.303 OA
ATOM     29  H   UNL     1      36.870  -7.237  46.988  0.00  0.00    +0.222 HD
ENDBRANCH  26  28
BRANCH  26  30
ATOM     30  O   UNL     1      37.936  -4.304  47.441  0.00  0.00    -0.303 OA
ATOM     31  H   UNL     1      38.539  -5.030  47.742  0.00  0.00    +0.222 HD
ENDBRANCH  26  30
ENDBRANCH  25  26
ENDBRANCH  24  25
ENDBRANCH   1  24
TORSDOF 8
ENDMDL
MODEL 20
REMARK VINA RESULT:    -5.887      4.238      6.920
REMARK INTER + INTRA:          -8.903
REMARK INTER:                  -8.151
REMARK INTRA:                  -0.751
REMARK UNBOUND:                -0.951
REMARK  Name = 5GP
REMARK  8 active torsions:
REMARK  status: ('A' for Active; 'I' for Inactive)
REMARK    1  A    between atoms: P_1  and  O_3
REMARK    2  A    between atoms: P_1  and  O_4
REMARK    3  A    between atoms: P_1  and  O_5
REMARK    4  A    between atoms: O_5  and  C_6
REMARK    5  A    between atoms: C_6  and  C_7
REMARK    6  A    between atoms: C_9  and  O_10
REMARK    7  A    between atoms: C_11  and  O_12
REMARK    8  A    between atoms: C_13  and  N_14
REMARK                            x       y       z     vdW  Elec       q    Type
REMARK                         _______ _______ _______ _____ _____    ______ ____
ROOT
ATOM      1  C   UNL     1      30.388  -2.332  49.520  0.00  0.00    +0.178 C 
ATOM      2  O   UNL     1      29.072  -2.795  49.280  0.00  0.00    -0.346 OA
ATOM      3  C   UNL     1      30.324  -0.939  50.163  0.00  0.00    +0.178 C 
ATOM      4  C   UNL     1      28.945  -0.932  50.779  0.00  0.00    +0.195 C 
ATOM      5  C   UNL     1      28.165  -1.892  49.881  0.00  0.00    +0.253 C 
ENDROOT
BRANCH   5   6
ATOM      6  N   UNL     1      27.164  -2.626  50.657  0.00  0.00    -0.285 N 
ATOM      7  C   UNL     1      27.230  -3.902  51.123  0.00  0.00    +0.203 A 
ATOM      8  N   UNL     1      26.170  -4.246  51.905  0.00  0.00    -0.229 NA
ATOM      9  C   UNL     1      25.435  -3.117  51.920  0.00  0.00    +0.172 A 
ATOM     10  C   UNL     1      24.244  -2.850  52.580  0.00  0.00    +0.280 A 
ATOM     11  O   UNL     1      23.672  -3.731  53.276  0.00  0.00    -0.265 OA
ATOM     12  N   UNL     1      23.711  -1.596  52.457  0.00  0.00    -0.293 N 
ATOM     13  C   UNL     1      24.339  -0.627  51.707  0.00  0.00    +0.195 A 
ATOM     14  N   UNL     1      23.769   0.677  51.597  0.00  0.00    -0.329 N 
ATOM     15  N   UNL     1      25.515  -0.906  51.064  0.00  0.00    -0.196 NA
ATOM     16  C   UNL     1      26.029  -2.153  51.186  0.00  0.00    +0.171 A 
ATOM     17  H   UNL     1      22.815  -1.371  52.945  0.00  0.00    +0.172 HD
ATOM     18  H   UNL     1      24.244   1.413  51.030  0.00  0.00    +0.145 HD
ATOM     19  H   UNL     1      22.873   0.910  52.080  0.00  0.00    +0.145 HD
ENDBRANCH   5   6
BRANCH   3  20
ATOM     20  O   UNL     1      30.487   0.078  49.200  0.00  0.00    -0.386 OA
ATOM     21  H   UNL     1      31.006  -0.291  48.438  0.00  0.00    +0.210 HD
ENDBRANCH   3  20
BRANCH   4  22
ATOM     22  O   UNL     1      28.372   0.353  50.867  0.00  0.00    -0.385 OA
ATOM     23  H   UNL     1      27.825   0.403  51.692  0.00  0.00    +0.210 HD
ENDBRANCH   4  22
BRANCH   1  24
ATOM     24  C   UNL     1      31.120  -3.337  50.419  0.00  0.00    +0.206 C 
BRANCH  24  25
ATOM     25  O   UNL     1      32.101  -4.005  49.661  0.00  0.00    -0.284 OA
BRANCH  25  26
ATOM     26  P   UNL     1      32.757  -5.263  50.608  0.00  0.00    +0.472 P 
ATOM     27  O   UNL     1      33.243  -4.713  51.932  0.00  0.00    -0.228 OA
BRANCH  26  28
ATOM     28  O   UNL     1      34.037  -6.017  49.793  0.00  0.00    -0.303 OA
ATOM     29  H   UNL     1      34.650  -6.328  50.506  0.00  0.00    +0.222 HD
ENDBRANCH  26  28
BRANCH  26  30
ATOM     30  O   UNL     1      31.549  -6.411  50.900  0.00  0.00    -0.303 OA
ATOM     31  H   UNL     1      31.506  -6.950  50.070  0.00  0.00    +0.222 HD
ENDBRANCH  26  30
ENDBRANCH  25  26
ENDBRANCH  24  25
ENDBRANCH   1  24
TORSDOF 8
ENDMDL
