REMARK  Name = temp_ligante_bfc61b2e.pdb
REMARK  3 active torsions:
REMARK  status: ('A' for Active; 'I' for Inactive)
REMARK    1  A    between atoms: C1_2  and  C2_3
REMARK    2  A    between atoms: C1_2  and  C3_7
REMARK    3  A    between atoms: C7_11  and  C8_12
REMARK                            x       y       z     vdW  Elec       q    Type
REMARK                         _______ _______ _______ _____ _____    ______ ____
ROOT
ATOM      1  C3  UNL     1      -1.294   0.353  -0.151  0.00  0.00    +0.000 C 
ATOM      2  C4  UNL     1      -2.077   1.647   0.129  0.00  0.00    +0.000 C 
ATOM      3  C5  UNL     1      -1.055   2.786   0.123  0.00  0.00    +0.000 C 
ATOM      4  C6  UNL     1       0.309   2.113   0.196  0.00  0.00    +0.000 C 
ATOM      5  C7  UNL     1       0.101   0.823  -0.608  0.00  0.00    +0.000 C 
ENDROOT
BRANCH   5   6
ATOM      6  C8  UNL     1       1.188  -0.226  -0.574  0.00  0.00    +0.000 C 
ATOM      7  C9  UNL     1       2.131  -0.284   0.448  0.00  0.00    +0.000 C 
ATOM      8  N1  UNL     1       3.119  -1.206   0.533  0.00  0.00    +0.000 NA
ATOM      9  C10 UNL     1       3.188  -2.132  -0.441  0.00  0.00    +0.000 C 
ATOM     10  C11 UNL     1       2.310  -2.180  -1.502  0.00  0.00    +0.000 C 
ATOM     11  C12 UNL     1       1.305  -1.217  -1.562  0.00  0.00    +0.000 C 
ATOM     12 CL1  UNL     1       0.213  -1.306  -2.902  0.00  0.00    +0.000 Cl
ENDBRANCH   5   6
BRANCH   1  14
ATOM     13  O1  UNL     1      -0.784  -0.089   2.163  0.00  0.00    +0.000 OA
ATOM     14  C1  UNL     1      -1.258  -0.518   1.107  0.00  0.00    +0.000 C 
BRANCH  14  15
ATOM     15  C2  UNL     1      -1.849  -1.911   0.956  0.00  0.00    +0.000 C 
ATOM     16  F1  UNL     1      -1.833  -2.637   2.104  0.00  0.00    +0.000 F 
ATOM     17  F2  UNL     1      -1.187  -2.647   0.021  0.00  0.00    +0.000 F 
ATOM     18  F3  UNL     1      -3.148  -1.861   0.548  0.00  0.00    +0.000 F 
ENDBRANCH  14  15
ENDBRANCH   1  14
TORSDOF 3
