MODEL 1
REMARK VINA RESULT:    -4.457      0.000      0.000
REMARK INTER + INTRA:          -4.996
REMARK INTER:                  -5.108
REMARK INTRA:                   0.112
REMARK UNBOUND:                 0.112
REMARK  Name = BET
REMARK  6 active torsions:
REMARK  status: ('A' for Active; 'I' for Inactive)
REMARK    1  A    between atoms: N_1  and  C_2
REMARK    2  A    between atoms: N_1  and  C_6
REMARK    3  A    between atoms: N_1  and  C_7
REMARK    4  A    between atoms: N_1  and  C_8
REMARK    5  A    between atoms: C_2  and  C_3
REMARK    6  A    between atoms: C_3  and  O_5
REMARK                            x       y       z     vdW  Elec       q    Type
REMARK                         _______ _______ _______ _____ _____    ______ ____
ROOT
ATOM      1  C   UNL     1      74.642  20.035  62.749  0.00  0.00    +0.046 C 
ENDROOT
BRANCH   1   2
ATOM      2  N   UNL     1      74.789  20.464  61.328  0.00  0.00    +0.381 N 
ATOM      3  C   UNL     1      73.480  20.859  60.754  0.00  0.00    -0.092 C 
ATOM      4  C   UNL     1      75.744  21.592  61.209  0.00  0.00    -0.092 C 
ATOM      5  C   UNL     1      75.317  19.318  60.548  0.00  0.00    -0.092 C 
ENDBRANCH   1   2
BRANCH   1   6
ATOM      6  C   UNL     1      74.542  21.178  63.726  0.00  0.00    +0.288 C 
ATOM      7  O   UNL     1      75.517  21.459  64.475  0.00  0.00    -0.253 OA
BRANCH   6   8
ATOM      8  O   UNL     1      73.370  21.924  63.805  0.00  0.00    -0.482 OA
ATOM      9  H   UNL     1      73.292  22.821  63.338  0.00  0.00    +0.295 HD
ENDBRANCH   6   8
ENDBRANCH   1   6
TORSDOF 3
ENDMDL
MODEL 2
REMARK VINA RESULT:    -4.411      1.056      2.049
REMARK INTER + INTRA:          -4.944
REMARK INTER:                  -5.037
REMARK INTRA:                   0.093
REMARK UNBOUND:                 0.112
REMARK  Name = BET
REMARK  6 active torsions:
REMARK  status: ('A' for Active; 'I' for Inactive)
REMARK    1  A    between atoms: N_1  and  C_2
REMARK    2  A    between atoms: N_1  and  C_6
REMARK    3  A    between atoms: N_1  and  C_7
REMARK    4  A    between atoms: N_1  and  C_8
REMARK    5  A    between atoms: C_2  and  C_3
REMARK    6  A    between atoms: C_3  and  O_5
REMARK                            x       y       z     vdW  Elec       q    Type
REMARK                         _______ _______ _______ _____ _____    ______ ____
ROOT
ATOM      1  C   UNL     1      74.305  20.858  62.568  0.00  0.00    +0.046 C 
ENDROOT
BRANCH   1   2
ATOM      2  N   UNL     1      75.108  20.700  61.320  0.00  0.00    +0.381 N 
ATOM      3  C   UNL     1      76.477  21.241  61.497  0.00  0.00    -0.092 C 
ATOM      4  C   UNL     1      75.185  19.277  60.913  0.00  0.00    -0.092 C 
ATOM      5  C   UNL     1      74.439  21.463  60.237  0.00  0.00    -0.092 C 
ENDBRANCH   1   2
BRANCH   1   6
ATOM      6  C   UNL     1      75.099  20.662  63.834  0.00  0.00    +0.288 C 
ATOM      7  O   UNL     1      75.433  21.657  64.532  0.00  0.00    -0.253 OA
BRANCH   6   8
ATOM      8  O   UNL     1      75.467  19.381  64.232  0.00  0.00    -0.482 OA
ATOM      9  H   UNL     1      76.263  18.915  63.811  0.00  0.00    +0.295 HD
ENDBRANCH   6   8
ENDBRANCH   1   6
TORSDOF 3
ENDMDL
MODEL 3
REMARK VINA RESULT:    -4.326      1.059      1.888
REMARK INTER + INTRA:          -4.847
REMARK INTER:                  -5.081
REMARK INTRA:                   0.234
REMARK UNBOUND:                 0.112
REMARK  Name = BET
REMARK  6 active torsions:
REMARK  status: ('A' for Active; 'I' for Inactive)
REMARK    1  A    between atoms: N_1  and  C_2
REMARK    2  A    between atoms: N_1  and  C_6
REMARK    3  A    between atoms: N_1  and  C_7
REMARK    4  A    between atoms: N_1  and  C_8
REMARK    5  A    between atoms: C_2  and  C_3
REMARK    6  A    between atoms: C_3  and  O_5
REMARK                            x       y       z     vdW  Elec       q    Type
REMARK                         _______ _______ _______ _____ _____    ______ ____
ROOT
ATOM      1  C   UNL     1      74.162  20.763  62.717  0.00  0.00    +0.046 C 
ENDROOT
BRANCH   1   2
ATOM      2  N   UNL     1      74.754  20.646  61.352  0.00  0.00    +0.381 N 
ATOM      3  C   UNL     1      75.085  19.236  61.036  0.00  0.00    -0.092 C 
ATOM      4  C   UNL     1      73.830  21.183  60.325  0.00  0.00    -0.092 C 
ATOM      5  C   UNL     1      76.007  21.441  61.320  0.00  0.00    -0.092 C 
ENDBRANCH   1   2
BRANCH   1   6
ATOM      6  C   UNL     1      75.130  20.459  63.832  0.00  0.00    +0.288 C 
ATOM      7  O   UNL     1      75.359  19.264  64.164  0.00  0.00    -0.253 OA
BRANCH   6   8
ATOM      8  O   UNL     1      75.771  21.499  64.498  0.00  0.00    -0.482 OA
ATOM      9  H   UNL     1      75.405  22.443  64.461  0.00  0.00    +0.295 HD
ENDBRANCH   6   8
ENDBRANCH   1   6
TORSDOF 3
ENDMDL
MODEL 4
REMARK VINA RESULT:    -4.141      0.879      1.801
REMARK INTER + INTRA:          -4.634
REMARK INTER:                  -4.777
REMARK INTRA:                   0.143
REMARK UNBOUND:                 0.112
REMARK  Name = BET
REMARK  6 active torsions:
REMARK  status: ('A' for Active; 'I' for Inactive)
REMARK    1  A    between atoms: N_1  and  C_2
REMARK    2  A    between atoms: N_1  and  C_6
REMARK    3  A    between atoms: N_1  and  C_7
REMARK    4  A    between atoms: N_1  and  C_8
REMARK    5  A    between atoms: C_2  and  C_3
REMARK    6  A    between atoms: C_3  and  O_5
REMARK                            x       y       z     vdW  Elec       q    Type
REMARK                         _______ _______ _______ _____ _____    ______ ____
ROOT
ATOM      1  C   UNL     1      75.130  20.022  62.918  0.00  0.00    +0.046 C 
ENDROOT
BRANCH   1   2
ATOM      2  N   UNL     1      75.795  20.308  61.613  0.00  0.00    +0.381 N 
ATOM      3  C   UNL     1      75.564  19.209  60.646  0.00  0.00    -0.092 C 
ATOM      4  C   UNL     1      75.309  21.586  61.039  0.00  0.00    -0.092 C 
ATOM      5  C   UNL     1      77.254  20.425  61.851  0.00  0.00    -0.092 C 
ENDBRANCH   1   2
BRANCH   1   6
ATOM      6  C   UNL     1      74.802  21.255  63.721  0.00  0.00    +0.288 C 
ATOM      7  O   UNL     1      73.632  21.725  63.711  0.00  0.00    -0.253 OA
BRANCH   6   8
ATOM      8  O   UNL     1      75.793  21.879  64.472  0.00  0.00    -0.482 OA
ATOM      9  H   UNL     1      75.817  21.785  65.481  0.00  0.00    +0.295 HD
ENDBRANCH   6   8
ENDBRANCH   1   6
TORSDOF 3
ENDMDL
MODEL 5
REMARK VINA RESULT:    -3.845      1.516      2.124
REMARK INTER + INTRA:          -4.295
REMARK INTER:                  -4.494
REMARK INTRA:                   0.199
REMARK UNBOUND:                 0.112
REMARK  Name = BET
REMARK  6 active torsions:
REMARK  status: ('A' for Active; 'I' for Inactive)
REMARK    1  A    between atoms: N_1  and  C_2
REMARK    2  A    between atoms: N_1  and  C_6
REMARK    3  A    between atoms: N_1  and  C_7
REMARK    4  A    between atoms: N_1  and  C_8
REMARK    5  A    between atoms: C_2  and  C_3
REMARK    6  A    between atoms: C_3  and  O_5
REMARK                            x       y       z     vdW  Elec       q    Type
REMARK                         _______ _______ _______ _____ _____    ______ ____
ROOT
ATOM      1  C   UNL     1      74.317  20.212  62.534  0.00  0.00    +0.046 C 
ENDROOT
BRANCH   1   2
ATOM      2  N   UNL     1      75.657  20.810  62.263  0.00  0.00    +0.381 N 
ATOM      3  C   UNL     1      75.598  21.742  61.111  0.00  0.00    -0.092 C 
ATOM      4  C   UNL     1      76.171  21.526  63.455  0.00  0.00    -0.092 C 
ATOM      5  C   UNL     1      76.598  19.712  61.931  0.00  0.00    -0.092 C 
ENDBRANCH   1   2
BRANCH   1   6
ATOM      6  C   UNL     1      73.220  21.228  62.724  0.00  0.00    +0.288 C 
ATOM      7  O   UNL     1      72.357  21.404  61.822  0.00  0.00    -0.253 OA
BRANCH   6   8
ATOM      8  O   UNL     1      73.163  21.977  63.895  0.00  0.00    -0.482 OA
ATOM      9  H   UNL     1      72.287  22.100  64.391  0.00  0.00    +0.295 HD
ENDBRANCH   6   8
ENDBRANCH   1   6
TORSDOF 3
ENDMDL
MODEL 6
REMARK VINA RESULT:    -3.422      1.565      2.600
REMARK INTER + INTRA:          -3.810
REMARK INTER:                  -3.925
REMARK INTRA:                   0.114
REMARK UNBOUND:                 0.112
REMARK  Name = BET
REMARK  6 active torsions:
REMARK  status: ('A' for Active; 'I' for Inactive)
REMARK    1  A    between atoms: N_1  and  C_2
REMARK    2  A    between atoms: N_1  and  C_6
REMARK    3  A    between atoms: N_1  and  C_7
REMARK    4  A    between atoms: N_1  and  C_8
REMARK    5  A    between atoms: C_2  and  C_3
REMARK    6  A    between atoms: C_3  and  O_5
REMARK                            x       y       z     vdW  Elec       q    Type
REMARK                         _______ _______ _______ _____ _____    ______ ____
ROOT
ATOM      1  C   UNL     1      75.609  21.548  61.574  0.00  0.00    +0.046 C 
ENDROOT
BRANCH   1   2
ATOM      2  N   UNL     1      74.435  20.673  61.861  0.00  0.00    +0.381 N 
ATOM      3  C   UNL     1      74.863  19.276  62.115  0.00  0.00    -0.092 C 
ATOM      4  C   UNL     1      73.668  21.177  63.025  0.00  0.00    -0.092 C 
ATOM      5  C   UNL     1      73.547  20.682  60.673  0.00  0.00    -0.092 C 
ENDBRANCH   1   2
BRANCH   1   6
ATOM      6  C   UNL     1      76.792  21.299  62.474  0.00  0.00    +0.288 C 
ATOM      7  O   UNL     1      77.813  20.708  62.029  0.00  0.00    -0.253 OA
BRANCH   6   8
ATOM      8  O   UNL     1      76.756  21.716  63.801  0.00  0.00    -0.482 OA
ATOM      9  H   UNL     1      77.608  21.797  64.343  0.00  0.00    +0.295 HD
ENDBRANCH   6   8
ENDBRANCH   1   6
TORSDOF 3
ENDMDL
MODEL 7
REMARK VINA RESULT:    -3.392     14.312     14.916
REMARK INTER + INTRA:          -3.776
REMARK INTER:                  -3.944
REMARK INTRA:                   0.168
REMARK UNBOUND:                 0.112
REMARK  Name = BET
REMARK  6 active torsions:
REMARK  status: ('A' for Active; 'I' for Inactive)
REMARK    1  A    between atoms: N_1  and  C_2
REMARK    2  A    between atoms: N_1  and  C_6
REMARK    3  A    between atoms: N_1  and  C_7
REMARK    4  A    between atoms: N_1  and  C_8
REMARK    5  A    between atoms: C_2  and  C_3
REMARK    6  A    between atoms: C_3  and  O_5
REMARK                            x       y       z     vdW  Elec       q    Type
REMARK                         _______ _______ _______ _____ _____    ______ ____
ROOT
ATOM      1  C   UNL     1      77.661  11.460  71.842  0.00  0.00    +0.046 C 
ENDROOT
BRANCH   1   2
ATOM      2  N   UNL     1      77.454  11.885  73.257  0.00  0.00    +0.381 N 
ATOM      3  C   UNL     1      77.208  10.715  74.133  0.00  0.00    -0.092 C 
ATOM      4  C   UNL     1      78.623  12.646  73.761  0.00  0.00    -0.092 C 
ATOM      5  C   UNL     1      76.262  12.768  73.308  0.00  0.00    -0.092 C 
ENDBRANCH   1   2
BRANCH   1   6
ATOM      6  C   UNL     1      78.401  10.154  71.698  0.00  0.00    +0.288 C 
ATOM      7  O   UNL     1      79.596  10.057  72.089  0.00  0.00    -0.253 OA
BRANCH   6   8
ATOM      8  O   UNL     1      77.766   9.055  71.130  0.00  0.00    -0.482 OA
ATOM      9  H   UNL     1      77.021   9.178  70.454  0.00  0.00    +0.295 HD
ENDBRANCH   6   8
ENDBRANCH   1   6
TORSDOF 3
ENDMDL
MODEL 8
REMARK VINA RESULT:    -3.321     14.618     15.530
REMARK INTER + INTRA:          -3.694
REMARK INTER:                  -3.811
REMARK INTRA:                   0.117
REMARK UNBOUND:                 0.112
REMARK  Name = BET
REMARK  6 active torsions:
REMARK  status: ('A' for Active; 'I' for Inactive)
REMARK    1  A    between atoms: N_1  and  C_2
REMARK    2  A    between atoms: N_1  and  C_6
REMARK    3  A    between atoms: N_1  and  C_7
REMARK    4  A    between atoms: N_1  and  C_8
REMARK    5  A    between atoms: C_2  and  C_3
REMARK    6  A    between atoms: C_3  and  O_5
REMARK                            x       y       z     vdW  Elec       q    Type
REMARK                         _______ _______ _______ _____ _____    ______ ____
ROOT
ATOM      1  C   UNL     1      79.030  10.292  73.607  0.00  0.00    +0.046 C 
ENDROOT
BRANCH   1   2
ATOM      2  N   UNL     1      78.366  11.583  73.950  0.00  0.00    +0.381 N 
ATOM      3  C   UNL     1      78.387  12.514  72.797  0.00  0.00    -0.092 C 
ATOM      4  C   UNL     1      76.966  11.363  74.385  0.00  0.00    -0.092 C 
ATOM      5  C   UNL     1      79.114  12.207  75.070  0.00  0.00    -0.092 C 
ENDBRANCH   1   2
BRANCH   1   6
ATOM      6  C   UNL     1      78.875   9.890  72.163  0.00  0.00    +0.288 C 
ATOM      7  O   UNL     1      79.877   9.879  71.397  0.00  0.00    -0.253 OA
BRANCH   6   8
ATOM      8  O   UNL     1      77.623   9.534  71.671  0.00  0.00    -0.482 OA
ATOM      9  H   UNL     1      77.453   8.602  71.309  0.00  0.00    +0.295 HD
ENDBRANCH   6   8
ENDBRANCH   1   6
TORSDOF 3
ENDMDL
MODEL 9
REMARK VINA RESULT:    -3.307      2.504      3.213
REMARK INTER + INTRA:          -3.678
REMARK INTER:                  -3.841
REMARK INTRA:                   0.163
REMARK UNBOUND:                 0.112
REMARK  Name = BET
REMARK  6 active torsions:
REMARK  status: ('A' for Active; 'I' for Inactive)
REMARK    1  A    between atoms: N_1  and  C_2
REMARK    2  A    between atoms: N_1  and  C_6
REMARK    3  A    between atoms: N_1  and  C_7
REMARK    4  A    between atoms: N_1  and  C_8
REMARK    5  A    between atoms: C_2  and  C_3
REMARK    6  A    between atoms: C_3  and  O_5
REMARK                            x       y       z     vdW  Elec       q    Type
REMARK                         _______ _______ _______ _____ _____    ______ ____
ROOT
ATOM      1  C   UNL     1      73.125  20.886  61.948  0.00  0.00    +0.046 C 
ENDROOT
BRANCH   1   2
ATOM      2  N   UNL     1      74.581  20.706  62.223  0.00  0.00    +0.381 N 
ATOM      3  C   UNL     1      75.403  21.484  61.266  0.00  0.00    -0.092 C 
ATOM      4  C   UNL     1      74.914  21.112  63.609  0.00  0.00    -0.092 C 
ATOM      5  C   UNL     1      74.909  19.268  62.062  0.00  0.00    -0.092 C 
ENDBRANCH   1   2
BRANCH   1   6
ATOM      6  C   UNL     1      72.788  20.985  60.482  0.00  0.00    +0.288 C 
ATOM      7  O   UNL     1      72.623  22.113  59.945  0.00  0.00    -0.253 OA
BRANCH   6   8
ATOM      8  O   UNL     1      72.654  19.828  59.721  0.00  0.00    -0.482 OA
ATOM      9  H   UNL     1      72.521  19.879  58.717  0.00  0.00    +0.295 HD
ENDBRANCH   6   8
ENDBRANCH   1   6
TORSDOF 3
ENDMDL
MODEL 10
REMARK VINA RESULT:    -3.304      2.903      3.607
REMARK INTER + INTRA:          -3.675
REMARK INTER:                  -3.847
REMARK INTRA:                   0.172
REMARK UNBOUND:                 0.112
REMARK  Name = BET
REMARK  6 active torsions:
REMARK  status: ('A' for Active; 'I' for Inactive)
REMARK    1  A    between atoms: N_1  and  C_2
REMARK    2  A    between atoms: N_1  and  C_6
REMARK    3  A    between atoms: N_1  and  C_7
REMARK    4  A    between atoms: N_1  and  C_8
REMARK    5  A    between atoms: C_2  and  C_3
REMARK    6  A    between atoms: C_3  and  O_5
REMARK                            x       y       z     vdW  Elec       q    Type
REMARK                         _______ _______ _______ _____ _____    ______ ____
ROOT
ATOM      1  C   UNL     1      72.987  20.924  61.308  0.00  0.00    +0.046 C 
ENDROOT
BRANCH   1   2
ATOM      2  N   UNL     1      74.260  20.598  60.600  0.00  0.00    +0.381 N 
ATOM      3  C   UNL     1      75.010  19.540  61.317  0.00  0.00    -0.092 C 
ATOM      4  C   UNL     1      73.997  20.165  59.207  0.00  0.00    -0.092 C 
ATOM      5  C   UNL     1      75.096  21.823  60.562  0.00  0.00    -0.092 C 
ENDBRANCH   1   2
BRANCH   1   6
ATOM      6  C   UNL     1      71.838  21.241  60.385  0.00  0.00    +0.288 C 
ATOM      7  O   UNL     1      71.639  22.426  60.005  0.00  0.00    -0.253 OA
BRANCH   6   8
ATOM      8  O   UNL     1      70.993  20.223  59.954  0.00  0.00    -0.482 OA
ATOM      9  H   UNL     1      70.684  19.499  60.592  0.00  0.00    +0.295 HD
ENDBRANCH   6   8
ENDBRANCH   1   6
TORSDOF 3
ENDMDL
MODEL 11
REMARK VINA RESULT:    -3.282     13.067     13.947
REMARK INTER + INTRA:          -3.650
REMARK INTER:                  -3.828
REMARK INTRA:                   0.179
REMARK UNBOUND:                 0.112
REMARK  Name = BET
REMARK  6 active torsions:
REMARK  status: ('A' for Active; 'I' for Inactive)
REMARK    1  A    between atoms: N_1  and  C_2
REMARK    2  A    between atoms: N_1  and  C_6
REMARK    3  A    between atoms: N_1  and  C_7
REMARK    4  A    between atoms: N_1  and  C_8
REMARK    5  A    between atoms: C_2  and  C_3
REMARK    6  A    between atoms: C_3  and  O_5
REMARK                            x       y       z     vdW  Elec       q    Type
REMARK                         _______ _______ _______ _____ _____    ______ ____
ROOT
ATOM      1  C   UNL     1      76.473  12.722  72.666  0.00  0.00    +0.046 C 
ENDROOT
BRANCH   1   2
ATOM      2  N   UNL     1      77.358  11.577  73.033  0.00  0.00    +0.381 N 
ATOM      3  C   UNL     1      77.409  10.575  71.942  0.00  0.00    -0.092 C 
ATOM      4  C   UNL     1      78.730  12.045  73.344  0.00  0.00    -0.092 C 
ATOM      5  C   UNL     1      76.798  10.927  74.243  0.00  0.00    -0.092 C 
ENDBRANCH   1   2
BRANCH   1   6
ATOM      6  C   UNL     1      77.040  14.072  73.024  0.00  0.00    +0.288 C 
ATOM      7  O   UNL     1      76.986  14.487  74.213  0.00  0.00    -0.253 OA
BRANCH   6   8
ATOM      8  O   UNL     1      77.621  14.864  72.039  0.00  0.00    -0.482 OA
ATOM      9  H   UNL     1      77.097  15.611  71.597  0.00  0.00    +0.295 HD
ENDBRANCH   6   8
ENDBRANCH   1   6
TORSDOF 3
ENDMDL
MODEL 12
REMARK VINA RESULT:    -3.271      6.963      7.635
REMARK INTER + INTRA:          -3.637
REMARK INTER:                  -3.742
REMARK INTRA:                   0.105
REMARK UNBOUND:                 0.112
REMARK  Name = BET
REMARK  6 active torsions:
REMARK  status: ('A' for Active; 'I' for Inactive)
REMARK    1  A    between atoms: N_1  and  C_2
REMARK    2  A    between atoms: N_1  and  C_6
REMARK    3  A    between atoms: N_1  and  C_7
REMARK    4  A    between atoms: N_1  and  C_8
REMARK    5  A    between atoms: C_2  and  C_3
REMARK    6  A    between atoms: C_3  and  O_5
REMARK                            x       y       z     vdW  Elec       q    Type
REMARK                         _______ _______ _______ _____ _____    ______ ____
ROOT
ATOM      1  C   UNL     1      81.879  17.539  62.558  0.00  0.00    +0.046 C 
ENDROOT
BRANCH   1   2
ATOM      2  N   UNL     1      81.086  18.480  61.713  0.00  0.00    +0.381 N 
ATOM      3  C   UNL     1      79.712  18.643  62.246  0.00  0.00    -0.092 C 
ATOM      4  C   UNL     1      81.748  19.804  61.629  0.00  0.00    -0.092 C 
ATOM      5  C   UNL     1      80.995  17.912  60.346  0.00  0.00    -0.092 C 
ENDBRANCH   1   2
BRANCH   1   6
ATOM      6  C   UNL     1      82.695  18.218  63.628  0.00  0.00    +0.288 C 
ATOM      7  O   UNL     1      83.924  18.435  63.446  0.00  0.00    -0.253 OA
BRANCH   6   8
ATOM      8  O   UNL     1      82.092  18.603  64.822  0.00  0.00    -0.482 OA
ATOM      9  H   UNL     1      81.480  19.410  64.858  0.00  0.00    +0.295 HD
ENDBRANCH   6   8
ENDBRANCH   1   6
TORSDOF 3
ENDMDL
MODEL 13
REMARK VINA RESULT:    -3.266      7.980      8.845
REMARK INTER + INTRA:          -3.631
REMARK INTER:                  -3.728
REMARK INTRA:                   0.097
REMARK UNBOUND:                 0.112
REMARK  Name = BET
REMARK  6 active torsions:
REMARK  status: ('A' for Active; 'I' for Inactive)
REMARK    1  A    between atoms: N_1  and  C_2
REMARK    2  A    between atoms: N_1  and  C_6
REMARK    3  A    between atoms: N_1  and  C_7
REMARK    4  A    between atoms: N_1  and  C_8
REMARK    5  A    between atoms: C_2  and  C_3
REMARK    6  A    between atoms: C_3  and  O_5
REMARK                            x       y       z     vdW  Elec       q    Type
REMARK                         _______ _______ _______ _____ _____    ______ ____
ROOT
ATOM      1  C   UNL     1      83.020  18.191  61.762  0.00  0.00    +0.046 C 
ENDROOT
BRANCH   1   2
ATOM      2  N   UNL     1      82.184  17.759  62.920  0.00  0.00    +0.381 N 
ATOM      3  C   UNL     1      82.670  18.365  64.182  0.00  0.00    -0.092 C 
ATOM      4  C   UNL     1      80.761  18.119  62.711  0.00  0.00    -0.092 C 
ATOM      5  C   UNL     1      82.283  16.283  63.039  0.00  0.00    -0.092 C 
ENDBRANCH   1   2
BRANCH   1   6
ATOM      6  C   UNL     1      83.441  19.637  61.818  0.00  0.00    +0.288 C 
ATOM      7  O   UNL     1      82.624  20.547  61.514  0.00  0.00    -0.253 OA
BRANCH   6   8
ATOM      8  O   UNL     1      84.736  19.969  62.204  0.00  0.00    -0.482 OA
ATOM      9  H   UNL     1      85.013  20.938  62.315  0.00  0.00    +0.295 HD
ENDBRANCH   6   8
ENDBRANCH   1   6
TORSDOF 3
ENDMDL
MODEL 14
REMARK VINA RESULT:    -3.253      8.380      9.214
REMARK INTER + INTRA:          -3.617
REMARK INTER:                  -3.744
REMARK INTRA:                   0.128
REMARK UNBOUND:                 0.112
REMARK  Name = BET
REMARK  6 active torsions:
REMARK  status: ('A' for Active; 'I' for Inactive)
REMARK    1  A    between atoms: N_1  and  C_2
REMARK    2  A    between atoms: N_1  and  C_6
REMARK    3  A    between atoms: N_1  and  C_7
REMARK    4  A    between atoms: N_1  and  C_8
REMARK    5  A    between atoms: C_2  and  C_3
REMARK    6  A    between atoms: C_3  and  O_5
REMARK                            x       y       z     vdW  Elec       q    Type
REMARK                         _______ _______ _______ _____ _____    ______ ____
ROOT
ATOM      1  C   UNL     1      82.604  18.704  61.679  0.00  0.00    +0.046 C 
ENDROOT
BRANCH   1   2
ATOM      2  N   UNL     1      82.123  17.893  62.836  0.00  0.00    +0.381 N 
ATOM      3  C   UNL     1      82.398  16.452  62.626  0.00  0.00    -0.092 C 
ATOM      4  C   UNL     1      82.759  18.341  64.099  0.00  0.00    -0.092 C 
ATOM      5  C   UNL     1      80.656  18.079  62.956  0.00  0.00    -0.092 C 
ENDBRANCH   1   2
BRANCH   1   6
ATOM      6  C   UNL     1      84.097  18.907  61.653  0.00  0.00    +0.288 C 
ATOM      7  O   UNL     1      84.853  17.995  61.222  0.00  0.00    -0.253 OA
BRANCH   6   8
ATOM      8  O   UNL     1      84.643  20.103  62.109  0.00  0.00    -0.482 OA
ATOM      9  H   UNL     1      84.973  20.193  63.063  0.00  0.00    +0.295 HD
ENDBRANCH   6   8
ENDBRANCH   1   6
TORSDOF 3
ENDMDL
MODEL 15
REMARK VINA RESULT:    -3.235      7.341      8.078
REMARK INTER + INTRA:          -3.596
REMARK INTER:                  -3.764
REMARK INTRA:                   0.169
REMARK UNBOUND:                 0.112
REMARK  Name = BET
REMARK  6 active torsions:
REMARK  status: ('A' for Active; 'I' for Inactive)
REMARK    1  A    between atoms: N_1  and  C_2
REMARK    2  A    between atoms: N_1  and  C_6
REMARK    3  A    between atoms: N_1  and  C_7
REMARK    4  A    between atoms: N_1  and  C_8
REMARK    5  A    between atoms: C_2  and  C_3
REMARK    6  A    between atoms: C_3  and  O_5
REMARK                            x       y       z     vdW  Elec       q    Type
REMARK                         _______ _______ _______ _____ _____    ______ ____
ROOT
ATOM      1  C   UNL     1      81.097  17.894  62.708  0.00  0.00    +0.046 C 
ENDROOT
BRANCH   1   2
ATOM      2  N   UNL     1      82.203  17.155  62.033  0.00  0.00    +0.381 N 
ATOM      3  C   UNL     1      81.866  16.870  60.617  0.00  0.00    -0.092 C 
ATOM      4  C   UNL     1      83.471  17.920  62.098  0.00  0.00    -0.092 C 
ATOM      5  C   UNL     1      82.396  15.863  62.738  0.00  0.00    -0.092 C 
ENDBRANCH   1   2
BRANCH   1   6
ATOM      6  C   UNL     1      81.567  18.916  63.711  0.00  0.00    +0.288 C 
ATOM      7  O   UNL     1      81.451  20.147  63.464  0.00  0.00    -0.253 OA
BRANCH   6   8
ATOM      8  O   UNL     1      82.136  18.501  64.911  0.00  0.00    -0.482 OA
ATOM      9  H   UNL     1      82.798  17.734  64.934  0.00  0.00    +0.295 HD
ENDBRANCH   6   8
ENDBRANCH   1   6
TORSDOF 3
ENDMDL
MODEL 16
REMARK VINA RESULT:    -3.208      7.973      8.745
REMARK INTER + INTRA:          -3.565
REMARK INTER:                  -3.664
REMARK INTRA:                   0.099
REMARK UNBOUND:                 0.112
REMARK  Name = BET
REMARK  6 active torsions:
REMARK  status: ('A' for Active; 'I' for Inactive)
REMARK    1  A    between atoms: N_1  and  C_2
REMARK    2  A    between atoms: N_1  and  C_6
REMARK    3  A    between atoms: N_1  and  C_7
REMARK    4  A    between atoms: N_1  and  C_8
REMARK    5  A    between atoms: C_2  and  C_3
REMARK    6  A    between atoms: C_3  and  O_5
REMARK                            x       y       z     vdW  Elec       q    Type
REMARK                         _______ _______ _______ _____ _____    ______ ____
ROOT
ATOM      1  C   UNL     1      83.169  17.425  62.758  0.00  0.00    +0.046 C 
ENDROOT
BRANCH   1   2
ATOM      2  N   UNL     1      82.254  18.603  62.740  0.00  0.00    +0.381 N 
ATOM      3  C   UNL     1      81.031  18.314  61.953  0.00  0.00    -0.092 C 
ATOM      4  C   UNL     1      81.876  19.004  64.117  0.00  0.00    -0.092 C 
ATOM      5  C   UNL     1      82.967  19.736  62.100  0.00  0.00    -0.092 C 
ENDBRANCH   1   2
BRANCH   1   6
ATOM      6  C   UNL     1      82.456  16.097  62.720  0.00  0.00    +0.288 C 
ATOM      7  O   UNL     1      82.501  15.384  61.681  0.00  0.00    -0.253 OA
BRANCH   6   8
ATOM      8  O   UNL     1      81.745  15.659  63.832  0.00  0.00    -0.482 OA
ATOM      9  H   UNL     1      80.732  15.622  63.820  0.00  0.00    +0.295 HD
ENDBRANCH   6   8
ENDBRANCH   1   6
TORSDOF 3
ENDMDL
MODEL 17
REMARK VINA RESULT:    -3.140     13.378     14.307
REMARK INTER + INTRA:          -3.487
REMARK INTER:                  -3.583
REMARK INTRA:                   0.096
REMARK UNBOUND:                 0.112
REMARK  Name = BET
REMARK  6 active torsions:
REMARK  status: ('A' for Active; 'I' for Inactive)
REMARK    1  A    between atoms: N_1  and  C_2
REMARK    2  A    between atoms: N_1  and  C_6
REMARK    3  A    between atoms: N_1  and  C_7
REMARK    4  A    between atoms: N_1  and  C_8
REMARK    5  A    between atoms: C_2  and  C_3
REMARK    6  A    between atoms: C_3  and  O_5
REMARK                            x       y       z     vdW  Elec       q    Type
REMARK                         _______ _______ _______ _____ _____    ______ ____
ROOT
ATOM      1  C   UNL     1      77.183  11.983  73.520  0.00  0.00    +0.046 C 
ENDROOT
BRANCH   1   2
ATOM      2  N   UNL     1      76.771  13.414  73.425  0.00  0.00    +0.381 N 
ATOM      3  C   UNL     1      76.843  14.077  74.749  0.00  0.00    -0.092 C 
ATOM      4  C   UNL     1      77.619  14.147  72.454  0.00  0.00    -0.092 C 
ATOM      5  C   UNL     1      75.366  13.463  72.951  0.00  0.00    -0.092 C 
ENDBRANCH   1   2
BRANCH   1   6
ATOM      6  C   UNL     1      78.666  11.762  73.371  0.00  0.00    +0.288 C 
ATOM      7  O   UNL     1      79.124  11.207  72.335  0.00  0.00    -0.253 OA
BRANCH   6   8
ATOM      8  O   UNL     1      79.533  12.168  74.381  0.00  0.00    -0.482 OA
ATOM      9  H   UNL     1      80.184  11.514  74.801  0.00  0.00    +0.295 HD
ENDBRANCH   6   8
ENDBRANCH   1   6
TORSDOF 3
ENDMDL
MODEL 18
REMARK VINA RESULT:    -3.132      7.297      8.004
REMARK INTER + INTRA:          -3.478
REMARK INTER:                  -3.615
REMARK INTRA:                   0.137
REMARK UNBOUND:                 0.112
REMARK  Name = BET
REMARK  6 active torsions:
REMARK  status: ('A' for Active; 'I' for Inactive)
REMARK    1  A    between atoms: N_1  and  C_2
REMARK    2  A    between atoms: N_1  and  C_6
REMARK    3  A    between atoms: N_1  and  C_7
REMARK    4  A    between atoms: N_1  and  C_8
REMARK    5  A    between atoms: C_2  and  C_3
REMARK    6  A    between atoms: C_3  and  O_5
REMARK                            x       y       z     vdW  Elec       q    Type
REMARK                         _______ _______ _______ _____ _____    ______ ____
ROOT
ATOM      1  C   UNL     1      81.814  19.923  62.950  0.00  0.00    +0.046 C 
ENDROOT
BRANCH   1   2
ATOM      2  N   UNL     1      82.612  19.760  61.699  0.00  0.00    +0.381 N 
ATOM      3  C   UNL     1      83.451  20.955  61.445  0.00  0.00    -0.092 C 
ATOM      4  C   UNL     1      83.471  18.554  61.770  0.00  0.00    -0.092 C 
ATOM      5  C   UNL     1      81.669  19.599  60.565  0.00  0.00    -0.092 C 
ENDBRANCH   1   2
BRANCH   1   6
ATOM      6  C   UNL     1      81.535  18.628  63.670  0.00  0.00    +0.288 C 
ATOM      7  O   UNL     1      80.629  17.856  63.255  0.00  0.00    -0.253 OA
BRANCH   6   8
ATOM      8  O   UNL     1      82.275  18.286  64.797  0.00  0.00    -0.482 OA
ATOM      9  H   UNL     1      82.671  19.002  65.395  0.00  0.00    +0.295 HD
ENDBRANCH   6   8
ENDBRANCH   1   6
TORSDOF 3
ENDMDL
MODEL 19
REMARK VINA RESULT:    -3.082     13.462     14.311
REMARK INTER + INTRA:          -3.421
REMARK INTER:                  -3.517
REMARK INTRA:                   0.096
REMARK UNBOUND:                 0.112
REMARK  Name = BET
REMARK  6 active torsions:
REMARK  status: ('A' for Active; 'I' for Inactive)
REMARK    1  A    between atoms: N_1  and  C_2
REMARK    2  A    between atoms: N_1  and  C_6
REMARK    3  A    between atoms: N_1  and  C_7
REMARK    4  A    between atoms: N_1  and  C_8
REMARK    5  A    between atoms: C_2  and  C_3
REMARK    6  A    between atoms: C_3  and  O_5
REMARK                            x       y       z     vdW  Elec       q    Type
REMARK                         _______ _______ _______ _____ _____    ______ ____
ROOT
ATOM      1  C   UNL     1      72.873  13.975  75.326  0.00  0.00    +0.046 C 
ENDROOT
BRANCH   1   2
ATOM      2  N   UNL     1      73.950  13.123  74.742  0.00  0.00    +0.381 N 
ATOM      3  C   UNL     1      73.443  11.765  74.431  0.00  0.00    -0.092 C 
ATOM      4  C   UNL     1      74.507  13.739  73.514  0.00  0.00    -0.092 C 
ATOM      5  C   UNL     1      75.039  13.000  75.742  0.00  0.00    -0.092 C 
ENDBRANCH   1   2
BRANCH   1   6
ATOM      6  C   UNL     1      72.130  14.803  74.309  0.00  0.00    +0.288 C 
ATOM      7  O   UNL     1      72.318  16.048  74.247  0.00  0.00    -0.253 OA
BRANCH   6   8
ATOM      8  O   UNL     1      71.231  14.193  73.440  0.00  0.00    -0.482 OA
ATOM      9  H   UNL     1      71.438  13.291  73.027  0.00  0.00    +0.295 HD
ENDBRANCH   6   8
ENDBRANCH   1   6
TORSDOF 3
ENDMDL
MODEL 20
REMARK VINA RESULT:    -3.081      2.529      3.090
REMARK INTER + INTRA:          -3.419
REMARK INTER:                  -3.520
REMARK INTRA:                   0.101
REMARK UNBOUND:                 0.112
REMARK  Name = BET
REMARK  6 active torsions:
REMARK  status: ('A' for Active; 'I' for Inactive)
REMARK    1  A    between atoms: N_1  and  C_2
REMARK    2  A    between atoms: N_1  and  C_6
REMARK    3  A    between atoms: N_1  and  C_7
REMARK    4  A    between atoms: N_1  and  C_8
REMARK    5  A    between atoms: C_2  and  C_3
REMARK    6  A    between atoms: C_3  and  O_5
REMARK                            x       y       z     vdW  Elec       q    Type
REMARK                         _______ _______ _______ _____ _____    ______ ____
ROOT
ATOM      1  C   UNL     1      76.008  20.948  62.380  0.00  0.00    +0.046 C 
ENDROOT
BRANCH   1   2
ATOM      2  N   UNL     1      74.921  20.756  61.377  0.00  0.00    +0.381 N 
ATOM      3  C   UNL     1      74.964  21.812  60.337  0.00  0.00    -0.092 C 
ATOM      4  C   UNL     1      75.020  19.422  60.735  0.00  0.00    -0.092 C 
ATOM      5  C   UNL     1      73.618  20.844  62.080  0.00  0.00    -0.092 C 
ENDBRANCH   1   2
BRANCH   1   6
ATOM      6  C   UNL     1      77.305  20.271  62.014  0.00  0.00    +0.288 C 
ATOM      7  O   UNL     1      78.102  20.823  61.208  0.00  0.00    -0.253 OA
BRANCH   6   8
ATOM      8  O   UNL     1      77.621  19.033  62.565  0.00  0.00    -0.482 OA
ATOM      9  H   UNL     1      78.449  18.529  62.269  0.00  0.00    +0.295 HD
ENDBRANCH   6   8
ENDBRANCH   1   6
TORSDOF 3
ENDMDL
