REMARK  Name = RIP
REMARK  4 active torsions:
REMARK  status: ('A' for Active; 'I' for Inactive)
REMARK    1  A    between atoms: C_1  and  O_6
REMARK    2  A    between atoms: C_2  and  O_7
REMARK    3  A    between atoms: C_3  and  O_8
REMARK    4  A    between atoms: C_4  and  O_9
REMARK                            x       y       z     vdW  Elec       q    Type
REMARK                         _______ _______ _______ _____ _____    ______ ____
ROOT
ATOM      1  C   UNL     1      -1.388  -0.699  -0.108  0.00  0.00    +0.279 C 
ATOM      2  C   UNL     1      -0.962   0.593   0.651  0.00  0.00    +0.201 C 
ATOM      3  C   UNL     1       0.419   1.093   0.187  0.00  0.00    +0.178 C 
ATOM      4  C   UNL     1       1.358  -0.108   0.015  0.00  0.00    +0.171 C 
ATOM      5  C   UNL     1       0.753  -1.139  -0.974  0.00  0.00    +0.197 C 
ATOM      6  O   UNL     1      -0.613  -0.896  -1.280  0.00  0.00    -0.346 OA
ENDROOT
BRANCH   1   7
ATOM      7  O   UNL     1      -1.305  -1.827   0.729  0.00  0.00    -0.365 OA
ATOM      8  H   UNL     1      -2.058  -1.764   1.372  0.00  0.00    +0.213 HD
ENDBRANCH   1   7
BRANCH   2   9
ATOM      9  O   UNL     1      -1.913   1.611   0.466  0.00  0.00    -0.384 OA
ATOM     10  H   UNL     1      -2.696   1.377   1.031  0.00  0.00    +0.210 HD
ENDBRANCH   2   9
BRANCH   3  11
ATOM     11  O   UNL     1       0.292   1.792  -1.028  0.00  0.00    -0.386 OA
ATOM     12  H   UNL     1       1.085   2.384  -1.106  0.00  0.00    +0.210 HD
ENDBRANCH   3  11
BRANCH   4  13
ATOM     13  O   UNL     1       2.616   0.329  -0.430  0.00  0.00    -0.387 OA
ATOM     14  H   UNL     1       3.243  -0.430  -0.301  0.00  0.00    +0.210 HD
ENDBRANCH   4  13
TORSDOF 4
