REMARK  Name = BET
REMARK  6 active torsions:
REMARK  status: ('A' for Active; 'I' for Inactive)
REMARK    1  A    between atoms: N_1  and  C_2
REMARK    2  A    between atoms: N_1  and  C_6
REMARK    3  A    between atoms: N_1  and  C_7
REMARK    4  A    between atoms: N_1  and  C_8
REMARK    5  A    between atoms: C_2  and  C_3
REMARK    6  A    between atoms: C_3  and  O_5
REMARK                            x       y       z     vdW  Elec       q    Type
REMARK                         _______ _______ _______ _____ _____    ______ ____
ROOT
ATOM      1  C   UNL     1       0.820  -0.270   0.758  0.00  0.00    +0.046 C 
ENDROOT
BRANCH   1   2
ATOM      2  N   UNL     1      -0.469  -0.204   0.009  0.00  0.00    +0.381 N 
ATOM      3  C   UNL     1      -1.135   1.105   0.212  0.00  0.00    -0.092 C 
ATOM      4  C   UNL     1      -0.254  -0.433  -1.440  0.00  0.00    -0.092 C 
ATOM      5  C   UNL     1      -1.362  -1.270   0.526  0.00  0.00    -0.092 C 
ENDBRANCH   1   2
BRANCH   1   6
ATOM      6  C   UNL     1       1.832   0.760   0.325  0.00  0.00    +0.288 C 
ATOM      7  O   UNL     1       1.868   1.888   0.887  0.00  0.00    -0.253 OA
BRANCH   6   8
ATOM      8  O   UNL     1       2.726   0.467  -0.700  0.00  0.00    -0.482 OA
ATOM      9  H   UNL     1       3.409   1.151  -1.005  0.00  0.00    +0.295 HD
ENDBRANCH   6   8
ENDBRANCH   1   6
TORSDOF 3
